  96  96   0   0
  0.4925131E+02  0.9796904E-09  0.1599828E-08  0.3028425E-08  0.5000000E-15
   1.0000000000000000E-004
  CAR 
 unknown system                          
      3.12322189    -20.47151417  301     -2.89885309      1.00000000
    -20.472  0.0000E+00  0.0000E+00
    -20.393  0.0000E+00  0.0000E+00
    -20.314  0.0000E+00  0.0000E+00
    -20.236  0.0000E+00  0.0000E+00
    -20.157  0.0000E+00  0.0000E+00
    -20.078  0.0000E+00  0.0000E+00
    -20.000  0.0000E+00  0.0000E+00
    -19.921  0.0000E+00  0.0000E+00
    -19.842  0.0000E+00  0.0000E+00
    -19.764  0.0000E+00  0.0000E+00
    -19.685  0.5882E-18  0.4626E-19
    -19.606  0.4872E-11  0.3832E-12
    -19.528  0.3176E-06  0.2498E-07
    -19.449  0.2373E-03  0.1869E-04
    -19.370  0.3976E-02  0.3314E-03
    -19.292  0.7501E-02  0.9214E-03
    -19.213  0.8526E-02  0.1592E-02
    -19.134  0.4690E-02  0.1961E-02
    -19.056  0.3241E-02  0.2216E-02
    -18.977  0.6548E-02  0.2731E-02
    -18.899  0.3268E-02  0.2988E-02
    -18.820  0.3205E-03  0.3013E-02
    -18.741  0.4735E-02  0.3385E-02
    -18.663  0.1033E-01  0.4197E-02
    -18.584  0.6837E-02  0.4735E-02
    -18.505  0.6535E-02  0.5249E-02
    -18.427  0.9824E-02  0.6022E-02
    -18.348  0.1568E-01  0.7255E-02
    -18.269  0.1100E-01  0.8120E-02
    -18.191  0.1581E-01  0.9364E-02
    -18.112  0.1955E-01  0.1090E-01
    -18.033  0.1413E-01  0.1201E-01
    -17.955  0.1770E-01  0.1340E-01
    -17.876  0.1833E-01  0.1485E-01
    -17.797  0.5301E-02  0.1526E-01
    -17.719  0.1596E-01  0.1652E-01
    -17.640  0.1414E-01  0.1763E-01
    -17.561  0.8638E-02  0.1831E-01
    -17.483  0.1154E-01  0.1922E-01
    -17.404  0.1803E-01  0.2064E-01
    -17.326  0.1346E-01  0.2169E-01
    -17.247  0.2444E-01  0.2362E-01
    -17.168  0.2384E-01  0.2549E-01
    -17.090  0.1628E-01  0.2677E-01
    -17.011  0.8770E-02  0.2746E-01
    -16.932  0.7592E-02  0.2806E-01
    -16.854  0.1264E-01  0.2905E-01
    -16.775  0.1144E-01  0.2995E-01
    -16.696  0.6087E-03  0.3000E-01
    -16.618  0.5784E-06  0.3000E-01
    -16.539  0.6150E-11  0.3000E-01
    -16.460  0.8871E-12  0.3000E-01
    -16.382  0.1595E-06  0.3000E-01
    -16.303  0.2793E-03  0.3002E-01
    -16.224  0.8204E-02  0.3067E-01
    -16.146  0.2416E-01  0.3257E-01
    -16.067  0.3327E-01  0.3518E-01
    -15.989  0.3226E-01  0.3772E-01
    -15.910  0.1242E-01  0.3870E-01
    -15.831  0.3779E-02  0.3900E-01
    -15.753  0.1759E-02  0.3913E-01
    -15.674  0.8733E-02  0.3982E-01
    -15.595  0.3594E-02  0.4010E-01
    -15.517  0.1090E-01  0.4096E-01
    -15.438  0.2109E-01  0.4262E-01
    -15.359  0.1145E-01  0.4352E-01
    -15.281  0.1628E-01  0.4480E-01
    -15.202  0.1295E-01  0.4582E-01
    -15.123  0.1761E-01  0.4720E-01
    -15.045  0.9900E-02  0.4798E-01
    -14.966  0.2143E-03  0.4800E-01
    -14.887  0.6356E-07  0.4800E-01
    -14.809  0.1750E-12  0.4800E-01
    -14.730  0.0000E+00  0.4800E-01
    -14.651  0.0000E+00  0.4800E-01
    -14.573  0.0000E+00  0.4800E-01
    -14.494  0.0000E+00  0.4800E-01
    -14.416  0.0000E+00  0.4800E-01
    -14.337  0.0000E+00  0.4800E-01
    -14.258  0.0000E+00  0.4800E-01
    -14.180  0.0000E+00  0.4800E-01
    -14.101  0.0000E+00  0.4800E-01
    -14.022  0.0000E+00  0.4800E-01
    -13.944  0.0000E+00  0.4800E-01
    -13.865  0.0000E+00  0.4800E-01
    -13.786  0.0000E+00  0.4800E-01
    -13.708  0.0000E+00  0.4800E-01
    -13.629  0.0000E+00  0.4800E-01
    -13.550  0.0000E+00  0.4800E-01
    -13.472  0.0000E+00  0.4800E-01
    -13.393  0.0000E+00  0.4800E-01
    -13.314  0.0000E+00  0.4800E-01
    -13.236  0.0000E+00  0.4800E-01
    -13.157  0.0000E+00  0.4800E-01
    -13.078  0.0000E+00  0.4800E-01
    -13.000  0.0000E+00  0.4800E-01
    -12.921  0.0000E+00  0.4800E-01
    -12.843  0.0000E+00  0.4800E-01
    -12.764  0.0000E+00  0.4800E-01
    -12.685  0.0000E+00  0.4800E-01
    -12.607  0.0000E+00  0.4800E-01
    -12.528  0.0000E+00  0.4800E-01
    -12.449  0.0000E+00  0.4800E-01
    -12.371  0.0000E+00  0.4800E-01
    -12.292  0.0000E+00  0.4800E-01
    -12.213  0.0000E+00  0.4800E-01
    -12.135  0.0000E+00  0.4800E-01
    -12.056  0.0000E+00  0.4800E-01
    -11.977  0.0000E+00  0.4800E-01
    -11.899  0.0000E+00  0.4800E-01
    -11.820  0.0000E+00  0.4800E-01
    -11.741  0.0000E+00  0.4800E-01
    -11.663  0.0000E+00  0.4800E-01
    -11.584  0.0000E+00  0.4800E-01
    -11.506  0.0000E+00  0.4800E-01
    -11.427  0.0000E+00  0.4800E-01
    -11.348  0.0000E+00  0.4800E-01
    -11.270  0.0000E+00  0.4800E-01
    -11.191  0.0000E+00  0.4800E-01
    -11.112  0.3953E-16  0.4800E-01
    -11.034  0.1133E-09  0.4800E-01
    -10.955  0.2980E-05  0.4800E-01
    -10.876  0.9672E-03  0.4808E-01
    -10.798  0.8098E-02  0.4871E-01
    -10.719  0.3586E-02  0.4900E-01
    -10.640  0.6830E-03  0.4905E-01
    -10.562  0.8163E-02  0.4969E-01
    -10.483  0.5044E-02  0.5009E-01
    -10.404  0.2383E-02  0.5028E-01
    -10.326  0.5122E-02  0.5068E-01
    -10.247  0.1090E-01  0.5154E-01
    -10.168  0.1808E-01  0.5296E-01
    -10.090  0.9664E-02  0.5372E-01
    -10.011  0.7622E-02  0.5432E-01
     -9.933  0.8761E-02  0.5501E-01
     -9.854  0.1382E-01  0.5609E-01
     -9.775  0.1792E-01  0.5750E-01
     -9.697  0.2352E-01  0.5935E-01
     -9.618  0.2481E-01  0.6130E-01
     -9.539  0.3016E-01  0.6368E-01
     -9.461  0.3349E-01  0.6631E-01
     -9.382  0.2585E-01  0.6834E-01
     -9.303  0.6892E-02  0.6888E-01
     -9.225  0.8408E-02  0.6955E-01
     -9.146  0.1442E-01  0.7068E-01
     -9.067  0.1064E-01  0.7152E-01
     -8.989  0.8092E-02  0.7215E-01
     -8.910  0.7185E-02  0.7272E-01
     -8.831  0.1674E-01  0.7404E-01
     -8.753  0.2022E-01  0.7563E-01
     -8.674  0.1135E-01  0.7652E-01
     -8.595  0.2858E-01  0.7877E-01
     -8.517  0.1768E-01  0.8016E-01
     -8.438  0.7980E-02  0.8078E-01
     -8.360  0.1717E-01  0.8214E-01
     -8.281  0.1483E-01  0.8330E-01
     -8.202  0.1617E-01  0.8457E-01
     -8.124  0.7639E-02  0.8517E-01
     -8.045  0.2685E-01  0.8729E-01
     -7.966  0.2090E-01  0.8893E-01
     -7.888  0.1206E-01  0.8988E-01
     -7.809  0.7628E-02  0.9048E-01
     -7.730  0.1665E-01  0.9179E-01
     -7.652  0.2274E-01  0.9358E-01
     -7.573  0.1645E-01  0.9487E-01
     -7.494  0.5962E-02  0.9534E-01
     -7.416  0.1061E-01  0.9617E-01
     -7.337  0.1114E-01  0.9705E-01
     -7.258  0.1547E-01  0.9827E-01
     -7.180  0.1271E-01  0.9927E-01
     -7.101  0.1971E-01  0.1008E+00
     -7.023  0.1959E-01  0.1024E+00
     -6.944  0.2626E-01  0.1044E+00
     -6.865  0.2992E-01  0.1068E+00
     -6.787  0.3473E-01  0.1095E+00
     -6.708  0.2983E-01  0.1119E+00
     -6.629  0.2609E-01  0.1139E+00
     -6.551  0.2267E-01  0.1157E+00
     -6.472  0.2850E-01  0.1179E+00
     -6.393  0.2213E-01  0.1197E+00
     -6.315  0.1755E-01  0.1210E+00
     -6.236  0.1235E-01  0.1220E+00
     -6.157  0.1752E-01  0.1234E+00
     -6.079  0.2545E-01  0.1254E+00
     -6.000  0.2416E-01  0.1273E+00
     -5.921  0.3062E-01  0.1297E+00
     -5.843  0.2539E-01  0.1317E+00
     -5.764  0.2293E-01  0.1335E+00
     -5.685  0.1363E-01  0.1346E+00
     -5.607  0.2907E-01  0.1369E+00
     -5.528  0.4382E-01  0.1403E+00
     -5.450  0.3435E-01  0.1430E+00
     -5.371  0.1823E-01  0.1444E+00
     -5.292  0.3411E-01  0.1471E+00
     -5.214  0.2409E-01  0.1490E+00
     -5.135  0.1882E-01  0.1505E+00
     -5.056  0.2849E-01  0.1527E+00
     -4.978  0.2500E-01  0.1547E+00
     -4.899  0.1790E-01  0.1561E+00
     -4.820  0.9203E-02  0.1568E+00
     -4.742  0.1554E-01  0.1581E+00
     -4.663  0.2301E-01  0.1599E+00
     -4.584  0.3207E-01  0.1624E+00
     -4.506  0.1906E-01  0.1639E+00
     -4.427  0.1536E-01  0.1651E+00
     -4.348  0.2255E-01  0.1669E+00
     -4.270  0.1481E-01  0.1680E+00
     -4.191  0.2044E-01  0.1697E+00
     -4.112  0.1631E-01  0.1709E+00
     -4.034  0.2154E-01  0.1726E+00
     -3.955  0.4765E-02  0.1730E+00
     -3.877  0.5668E-02  0.1735E+00
     -3.798  0.9679E-02  0.1742E+00
     -3.719  0.1741E-01  0.1756E+00
     -3.641  0.1412E-01  0.1767E+00
     -3.562  0.1137E-01  0.1776E+00
     -3.483  0.9419E-02  0.1783E+00
     -3.405  0.8238E-02  0.1790E+00
     -3.326  0.6979E-02  0.1795E+00
     -3.247  0.2728E-01  0.1817E+00
     -3.169  0.4461E-01  0.1852E+00
     -3.090  0.4815E-01  0.1890E+00
     -3.011  0.2557E-01  0.1910E+00
     -2.933  0.8933E-02  0.1917E+00
     -2.854  0.1065E-01  0.1925E+00
     -2.775  0.2076E-01  0.1941E+00
     -2.697  0.1044E-01  0.1950E+00
     -2.618  0.1468E-01  0.1961E+00
     -2.540  0.1086E-01  0.1970E+00
     -2.461  0.2967E-03  0.1970E+00
     -2.382  0.2168E-02  0.1972E+00
     -2.304  0.9071E-02  0.1979E+00
     -2.225  0.7411E-02  0.1985E+00
     -2.146  0.4072E-02  0.1988E+00
     -2.068  0.6174E-02  0.1993E+00
     -1.989  0.2414E-02  0.1995E+00
     -1.910  0.5020E-02  0.1999E+00
     -1.832  0.7609E-02  0.2005E+00
     -1.753  0.1095E-01  0.2013E+00
     -1.674  0.7471E-02  0.2019E+00
     -1.596  0.8446E-02  0.2026E+00
     -1.517  0.9123E-02  0.2033E+00
     -1.438  0.1256E-01  0.2043E+00
     -1.360  0.1575E-01  0.2055E+00
     -1.281  0.1005E-01  0.2063E+00
     -1.202  0.6857E-02  0.2068E+00
     -1.124  0.3626E-02  0.2071E+00
     -1.045  0.1289E-01  0.2081E+00
     -0.967  0.1647E-01  0.2094E+00
     -0.888  0.1757E-01  0.2108E+00
     -0.809  0.1389E-01  0.2119E+00
     -0.731  0.1103E-02  0.2120E+00
     -0.652  0.1164E-02  0.2121E+00
     -0.573  0.5423E-02  0.2125E+00
     -0.495  0.4107E-02  0.2128E+00
     -0.416  0.4335E-02  0.2132E+00
     -0.337  0.6567E-02  0.2137E+00
     -0.259  0.1199E-01  0.2146E+00
     -0.180  0.2116E-01  0.2163E+00
     -0.101  0.2641E-01  0.2184E+00
     -0.023  0.2022E-01  0.2200E+00
      0.056  0.1425E-01  0.2211E+00
      0.135  0.5907E-02  0.2216E+00
      0.213  0.6364E-02  0.2221E+00
      0.292  0.8298E-02  0.2227E+00
      0.371  0.1117E-01  0.2236E+00
      0.449  0.2089E-01  0.2252E+00
      0.528  0.8385E-02  0.2259E+00
      0.606  0.6748E-02  0.2264E+00
      0.685  0.4791E-02  0.2268E+00
      0.764  0.7786E-02  0.2274E+00
      0.842  0.8104E-02  0.2280E+00
      0.921  0.5367E-02  0.2285E+00
      1.000  0.9549E-02  0.2292E+00
      1.078  0.2083E-01  0.2309E+00
      1.157  0.2493E-01  0.2328E+00
      1.236  0.1752E-01  0.2342E+00
      1.314  0.2022E-01  0.2358E+00
      1.393  0.2526E-01  0.2378E+00
      1.472  0.1777E-01  0.2392E+00
      1.550  0.1610E-01  0.2404E+00
      1.629  0.1306E-01  0.2415E+00
      1.708  0.1249E-01  0.2425E+00
      1.786  0.1452E-01  0.2436E+00
      1.865  0.1281E-01  0.2446E+00
      1.943  0.1766E-01  0.2460E+00
      2.022  0.1808E-01  0.2474E+00
      2.101  0.7082E-02  0.2480E+00
      2.179  0.4051E-03  0.2480E+00
      2.258  0.5987E-06  0.2480E+00
      2.337  0.9529E-11  0.2480E+00
      2.415  0.9411E-18  0.2480E+00
      2.494  0.0000E+00  0.2480E+00
      2.573  0.0000E+00  0.2480E+00
      2.651  0.0000E+00  0.2480E+00
      2.730  0.0000E+00  0.2480E+00
      2.809  0.0000E+00  0.2480E+00
      2.887  0.0000E+00  0.2480E+00
      2.966  0.0000E+00  0.2480E+00
      3.045  0.0000E+00  0.2480E+00
      3.123  0.0000E+00  0.2480E+00
