Automatically generated mesh
       6
Reciprocal lattice
    0.12500000000000    0.00000000000000    0.00000000000000             2
    0.37500000000000    0.00000000000000    0.00000000000000             2
    0.12500000000000    0.33333333333334    0.00000000000000             2
    0.12500000000000   -0.33333333333333    0.00000000000000             2
    0.37500000000000    0.33333333333334    0.00000000000000             2
    0.37500000000000   -0.33333333333333    0.00000000000000             2
