       N       E                     dE             d eps       ncg     rms          rms(c)
DAV:   1     0.296002583270E+04    0.29600E+04   -0.11031E+05  3272   0.842E+02
DAV:   2     0.165992868580E+03   -0.27940E+04   -0.26790E+04  4224   0.225E+02
DAV:   3    -0.560318940042E+03   -0.72631E+03   -0.70808E+03  3896   0.116E+02
DAV:   4    -0.599268539206E+03   -0.38950E+02   -0.38552E+02  3496   0.299E+01
DAV:   5    -0.600952110572E+03   -0.16836E+01   -0.16806E+01  4368   0.506E+00    0.612E+01
DAV:   6    -0.511725651075E+03    0.89226E+02   -0.56735E+02  3312   0.347E+01    0.433E+01
DAV:   7    -0.540737252170E+03   -0.29012E+02   -0.11743E+02  4352   0.232E+01    0.470E+01
DAV:   8    -0.499466783598E+03    0.41270E+02   -0.61040E+01  4616   0.208E+01    0.228E+01
DAV:   9    -0.490326529997E+03    0.91403E+01   -0.33789E+01  3912   0.124E+01    0.129E+01
DAV:  10    -0.488406430882E+03    0.19201E+01   -0.14310E+01  3832   0.795E+00    0.629E+00
DAV:  11    -0.488148584176E+03    0.25785E+00   -0.22926E+00  3832   0.349E+00    0.474E+00
DAV:  12    -0.487917156907E+03    0.23143E+00   -0.93879E-01  4024   0.224E+00    0.316E+00
DAV:  13    -0.487782261944E+03    0.13489E+00   -0.29957E-01  3928   0.126E+00    0.147E+00
DAV:  14    -0.487809174515E+03   -0.26913E-01   -0.15464E-01  3992   0.928E-01    0.188E+00
DAV:  15    -0.487755971152E+03    0.53203E-01   -0.71784E-02  4088   0.669E-01    0.570E-01
DAV:  16    -0.487761606760E+03   -0.56356E-02   -0.26497E-02  3872   0.360E-01    0.527E-01
DAV:  17    -0.487758231008E+03    0.33758E-02   -0.81086E-03  4192   0.213E-01    0.283E-01
DAV:  18    -0.487758762136E+03   -0.53113E-03   -0.58205E-03  4024   0.163E-01    0.293E-01
DAV:  19    -0.487758255883E+03    0.50625E-03   -0.25940E-03  4280   0.112E-01    0.205E-01
DAV:  20    -0.487758287661E+03   -0.31777E-04   -0.13215E-03  3600   0.756E-02    0.995E-02
DAV:  21    -0.487758841057E+03   -0.55340E-03   -0.78052E-04  3408   0.580E-02    0.572E-02
DAV:  22    -0.487759940797E+03   -0.10997E-02   -0.50366E-04  2840   0.416E-02    0.578E-02
DAV:  23    -0.487760660796E+03   -0.72000E-03   -0.13303E-04  2472   0.274E-02    0.547E-02
DAV:  24    -0.487761771596E+03   -0.11108E-02   -0.17692E-04  2392   0.261E-02    0.441E-02
DAV:  25    -0.487762776904E+03   -0.10053E-02   -0.15595E-04  2528   0.231E-02    0.243E-02
DAV:  26    -0.487763686090E+03   -0.90919E-03   -0.15953E-04  2568   0.187E-02    0.227E-02
DAV:  27    -0.487764095547E+03   -0.40946E-03   -0.49635E-05  2416   0.123E-02    0.135E-02
DAV:  28    -0.487764533637E+03   -0.43809E-03   -0.46806E-05  2392   0.851E-03    0.810E-03
DAV:  29    -0.487764818743E+03   -0.28511E-03   -0.17010E-05  2160   0.616E-03    0.945E-03
DAV:  30    -0.487764985131E+03   -0.16639E-03   -0.89575E-06  2144   0.467E-03    0.610E-03
DAV:  31    -0.487765154621E+03   -0.16949E-03   -0.65288E-06  2096   0.386E-03    0.731E-03
DAV:  32    -0.487765288735E+03   -0.13411E-03   -0.48892E-06  2096   0.309E-03    0.312E-03
DAV:  33    -0.487765418309E+03   -0.12957E-03   -0.46488E-06  2112   0.250E-03    0.220E-03
DAV:  34    -0.487765479766E+03   -0.61457E-04   -0.26951E-06  2088   0.181E-03
   1 F= -.48776548E+03 E0= -.48775919E+03  d E =-.487765E+03
       N       E                     dE             d eps       ncg     rms          rms(c)
DAV:   1    -0.491042811568E+03   -0.32774E+01   -0.39412E+02  2976   0.397E+01    0.913E+00
DAV:   2    -0.496192320467E+03   -0.51495E+01   -0.20545E+01  4200   0.872E+00    0.150E+01
DAV:   3    -0.491545292719E+03    0.46470E+01   -0.57501E+00  4360   0.605E+00    0.476E+00
DAV:   4    -0.491440810026E+03    0.10448E+00   -0.12477E+00  3520   0.235E+00    0.197E+00
DAV:   5    -0.491433398270E+03    0.74118E-02   -0.28522E-01  3648   0.115E+00    0.144E+00
DAV:   6    -0.491425835408E+03    0.75629E-02   -0.71136E-02  3928   0.616E-01    0.105E+00
DAV:   7    -0.491415948910E+03    0.98865E-02   -0.37902E-02  3768   0.395E-01    0.395E-01
DAV:   8    -0.491415571989E+03    0.37692E-03   -0.77414E-03  3640   0.208E-01    0.153E-01
DAV:   9    -0.491415732176E+03   -0.16019E-03   -0.34112E-03  3704   0.111E-01    0.102E-01
DAV:  10    -0.491415731614E+03    0.56167E-06   -0.31172E-04  2800   0.482E-02
   2 F= -.49141573E+03 E0= -.49140628E+03  d E =-.365025E+01
       N       E                     dE             d eps       ncg     rms          rms(c)
DAV:   1    -0.491540150401E+03   -0.12442E+00   -0.15851E+01  3008   0.801E+00    0.195E+00
DAV:   2    -0.491913504121E+03   -0.37335E+00   -0.78268E-01  4360   0.208E+00    0.446E+00
DAV:   3    -0.491507021465E+03    0.40648E+00   -0.31560E-01  4376   0.160E+00    0.669E-01
DAV:   4    -0.491537885559E+03   -0.30864E-01   -0.70802E-02  3480   0.457E-01    0.422E-01
DAV:   5    -0.491537248374E+03    0.63718E-03   -0.85086E-03  3920   0.215E-01    0.316E-01
DAV:   6    -0.491536567169E+03    0.68120E-03   -0.31146E-03  3856   0.128E-01    0.186E-01
DAV:   7    -0.491537153504E+03   -0.58633E-03   -0.20155E-03  4264   0.121E-01    0.247E-01
DAV:   8    -0.491536297131E+03    0.85637E-03   -0.10121E-03  3704   0.858E-02    0.596E-02
DAV:   9    -0.491536455935E+03   -0.15880E-03   -0.28742E-04  2520   0.322E-02    0.398E-02
DAV:  10    -0.491536486940E+03   -0.31005E-04   -0.53509E-05  1960   0.165E-02
   3 F= -.49153649E+03 E0= -.49152618E+03  d E =-.377101E+01
       N       E                     dE             d eps       ncg     rms          rms(c)
DAV:   1    -0.492023120038E+03   -0.48666E+00   -0.40893E+02  2976   0.413E+01    0.602E+00
DAV:   2    -0.493498579681E+03   -0.14755E+01   -0.12483E+01  3744   0.559E+00    0.802E+00
DAV:   3    -0.493349151126E+03    0.14943E+00   -0.32614E+00  4376   0.368E+00    0.587E+00
DAV:   4    -0.492815626858E+03    0.53352E+00   -0.37703E-01  3944   0.176E+00    0.201E+00
DAV:   5    -0.492829735037E+03   -0.14108E-01   -0.33189E-01  3592   0.979E-01    0.133E+00
DAV:   6    -0.492831324768E+03   -0.15897E-02   -0.53786E-02  4128   0.527E-01    0.104E+00
DAV:   7    -0.492825687716E+03    0.56371E-02   -0.15446E-02  4016   0.290E-01    0.613E-01
DAV:   8    -0.492824778865E+03    0.90885E-03   -0.88363E-03  3752   0.190E-01    0.236E-01
DAV:   9    -0.492825632123E+03   -0.85326E-03   -0.27974E-03  4144   0.136E-01    0.249E-01
DAV:  10    -0.492825136008E+03    0.49611E-03   -0.96126E-04  3560   0.850E-02    0.768E-02
DAV:  11    -0.492825528087E+03   -0.39208E-03   -0.41785E-04  2872   0.440E-02    0.654E-02
DAV:  12    -0.492825665448E+03   -0.13736E-03   -0.10902E-04  2376   0.277E-02    0.312E-02
DAV:  13    -0.492825852867E+03   -0.18742E-03   -0.54804E-05  2352   0.164E-02    0.140E-02
DAV:  14    -0.492825988509E+03   -0.13564E-03   -0.30355E-05  2360   0.108E-02    0.134E-02
DAV:  15    -0.492826086632E+03   -0.98122E-04   -0.14320E-05  2320   0.705E-03
   4 F= -.49282609E+03 E0= -.49281448E+03  d E =-.128960E+01
       N       E                     dE             d eps       ncg     rms          rms(c)
DAV:   1    -0.492826270064E+03   -0.28155E-03   -0.49436E-02  3024   0.454E-01    0.462E-02
DAV:   2    -0.492826456187E+03   -0.18612E-03   -0.10014E-03  3512   0.520E-02    0.709E-02
DAV:   3    -0.492826429453E+03    0.26733E-04   -0.65174E-05  2240   0.295E-02
   5 F= -.49282643E+03 E0= -.49281478E+03  d E =-.128994E+01
       N       E                     dE             d eps       ncg     rms          rms(c)
DAV:   1    -0.492913615766E+03   -0.87160E-01   -0.68143E+01  2976   0.169E+01    0.208E+00
DAV:   2    -0.493156745090E+03   -0.24313E+00   -0.19456E+00  3832   0.213E+00    0.296E+00
DAV:   3    -0.493067616912E+03    0.89128E-01   -0.27431E-01  4240   0.127E+00    0.184E+00
DAV:   4    -0.493018855825E+03    0.48761E-01   -0.70778E-02  3656   0.563E-01    0.588E-01
DAV:   5    -0.493020051963E+03   -0.11961E-02   -0.35783E-02  3520   0.342E-01    0.342E-01
DAV:   6    -0.493020665955E+03   -0.61399E-03   -0.67633E-03  4120   0.191E-01    0.285E-01
DAV:   7    -0.493020196597E+03    0.46936E-03   -0.18322E-03  4000   0.100E-01    0.159E-01
DAV:   8    -0.493020555318E+03   -0.35872E-03   -0.10605E-03  3536   0.721E-02    0.157E-01
DAV:   9    -0.493020488339E+03    0.66978E-04   -0.65621E-04  3104   0.611E-02
   6 F= -.49302049E+03 E0= -.49300818E+03  d E =-.194059E+00
       N       E                     dE             d eps       ncg     rms          rms(c)
DAV:   1    -0.493020698174E+03   -0.14286E-03   -0.82330E-03  3072   0.192E-01    0.666E-02
DAV:   2    -0.493021305554E+03   -0.60738E-03   -0.80395E-04  3408   0.774E-02    0.184E-01
DAV:   3    -0.493020831523E+03    0.47403E-03   -0.39468E-04  2976   0.580E-02    0.368E-02
DAV:   4    -0.493020956582E+03   -0.12506E-03   -0.12192E-04  2232   0.218E-02    0.266E-02
DAV:   5    -0.493021065702E+03   -0.10912E-03   -0.30359E-05  2296   0.128E-02    0.195E-02
DAV:   6    -0.493021120304E+03   -0.54602E-04   -0.99515E-06  2160   0.751E-03
   7 F= -.49302112E+03 E0= -.49300879E+03  d E =-.194691E+00
       N       E                     dE             d eps       ncg     rms          rms(c)
DAV:   1    -0.493050222920E+03   -0.29157E-01   -0.15153E+01  2976   0.783E+00    0.939E-01
DAV:   2    -0.493123473330E+03   -0.73250E-01   -0.37259E-01  3928   0.105E+00    0.193E+00
DAV:   3    -0.493073879500E+03    0.49594E-01   -0.62386E-02  4200   0.647E-01    0.693E-01
DAV:   4    -0.493073396914E+03    0.48259E-03   -0.93253E-03  3488   0.253E-01    0.212E-01
DAV:   5    -0.493073373317E+03    0.23597E-04   -0.49121E-03  3496   0.136E-01    0.141E-01
DAV:   6    -0.493073549291E+03   -0.17597E-03   -0.14683E-03  4224   0.836E-02    0.148E-01
DAV:   7    -0.493073337040E+03    0.21225E-03   -0.40632E-04  3056   0.482E-02    0.488E-02
DAV:   8    -0.493073447644E+03   -0.11060E-03   -0.18815E-04  2488   0.303E-02    0.585E-02
DAV:   9    -0.493073440630E+03    0.70140E-05   -0.65503E-05  2088   0.239E-02
   8 F= -.49307344E+03 E0= -.49306133E+03  d E =-.523203E-01
       N       E                     dE             d eps       ncg     rms          rms(c)
DAV:   1    -0.493075093983E+03   -0.16463E-02   -0.24188E+00  2992   0.313E+00    0.372E-01
DAV:   2    -0.493087734228E+03   -0.12640E-01   -0.58033E-02  3936   0.425E-01    0.857E-01
DAV:   3    -0.493078294425E+03    0.94398E-02   -0.95458E-03  4248   0.267E-01    0.271E-01
DAV:   4    -0.493078763116E+03   -0.46869E-03   -0.15845E-03  3336   0.101E-01    0.845E-02
DAV:   5    -0.493078852881E+03   -0.89765E-04   -0.73112E-04  3488   0.604E-02
   9 F= -.49307885E+03 E0= -.49306685E+03  d E =-.577326E-01
       N       E                     dE             d eps       ncg     rms          rms(c)
DAV:   1    -0.493089852138E+03   -0.11089E-01   -0.10866E+01  2992   0.666E+00    0.834E-01
DAV:   2    -0.493146139066E+03   -0.56287E-01   -0.28183E-01  3976   0.929E-01    0.170E+00
DAV:   3    -0.493107954329E+03    0.38185E-01   -0.47258E-02  4272   0.568E-01    0.648E-01
DAV:   4    -0.493107209356E+03    0.74497E-03   -0.78151E-03  3488   0.227E-01    0.209E-01
DAV:   5    -0.493107925187E+03   -0.71583E-03   -0.44889E-03  3888   0.150E-01    0.269E-01
DAV:   6    -0.493107036864E+03    0.88832E-03   -0.17824E-03  4168   0.108E-01    0.108E-01
DAV:   7    -0.493107220814E+03   -0.18395E-03   -0.75782E-04  3456   0.693E-02    0.121E-01
DAV:   8    -0.493107054142E+03    0.16667E-03   -0.23581E-04  2216   0.452E-02    0.429E-02
DAV:   9    -0.493107110022E+03   -0.55880E-04   -0.13204E-04  2160   0.246E-02
  10 F= -.49310711E+03 E0= -.49309510E+03  d E =-.282571E-01
       N       E                     dE             d eps       ncg     rms          rms(c)
DAV:   1    -0.493107111383E+03   -0.57242E-04   -0.91459E-04  2880   0.633E-02    0.204E-02
DAV:   2    -0.493107146531E+03   -0.35148E-04   -0.49124E-05  2072   0.171E-02
  11 F= -.49310715E+03 E0= -.49309515E+03  d E =-.282937E-01
       N       E                     dE             d eps       ncg     rms          rms(c)
DAV:   1    -0.493113745626E+03   -0.66342E-02   -0.13699E+00  2976   0.237E+00    0.359E-01
DAV:   2    -0.493130248322E+03   -0.16503E-01   -0.39516E-02  4184   0.415E-01    0.109E+00
DAV:   3    -0.493113253527E+03    0.16995E-01   -0.12625E-02  4248   0.307E-01    0.209E-01
DAV:   4    -0.493115476906E+03   -0.22234E-02   -0.26078E-03  3408   0.969E-02    0.128E-01
DAV:   5    -0.493115334263E+03    0.14264E-03   -0.39046E-04  2688   0.480E-02    0.666E-02
DAV:   6    -0.493115362839E+03   -0.28575E-04   -0.24107E-04  2560   0.347E-02
  12 F= -.49311536E+03 E0= -.49310328E+03  d E =-.821631E-02
       N       E                     dE             d eps       ncg     rms          rms(c)
DAV:   1    -0.493117141329E+03   -0.18071E-02   -0.15475E+00  2976   0.252E+00    0.385E-01
DAV:   2    -0.493135912691E+03   -0.18771E-01   -0.44299E-02  4152   0.444E-01    0.117E+00
DAV:   3    -0.493116515671E+03    0.19397E-01   -0.14593E-02  4232   0.328E-01    0.227E-01
DAV:   4    -0.493119030038E+03   -0.25144E-02   -0.30687E-03  3408   0.105E-01    0.145E-01
DAV:   5    -0.493118833158E+03    0.19688E-03   -0.46106E-04  2728   0.541E-02    0.720E-02
DAV:   6    -0.493118870068E+03   -0.36910E-04   -0.28767E-04  2552   0.401E-02
  13 F= -.49311887E+03 E0= -.49310672E+03  d E =-.117235E-01
       N       E                     dE             d eps       ncg     rms          rms(c)
DAV:   1    -0.493124059995E+03   -0.52268E-02   -0.67599E-01  2976   0.164E+00    0.160E-01
DAV:   2    -0.493125482483E+03   -0.14225E-02   -0.13587E-02  3824   0.186E-01    0.172E-01
DAV:   3    -0.493125368296E+03    0.11419E-03   -0.94849E-04  3792   0.914E-02    0.169E-01
DAV:   4    -0.493125098074E+03    0.27022E-03   -0.36596E-04  2824   0.564E-02    0.925E-02
DAV:   5    -0.493125061372E+03    0.36702E-04   -0.19576E-04  2288   0.378E-02
  14 F= -.49312506E+03 E0= -.49311290E+03  d E =-.619130E-02
       N       E                     dE             d eps       ncg     rms          rms(c)
DAV:   1    -0.493127290057E+03   -0.21920E-02   -0.31505E-01  2976   0.112E+00    0.116E-01
DAV:   2    -0.493128089358E+03   -0.79930E-03   -0.63434E-03  3904   0.134E-01    0.173E-01
DAV:   3    -0.493127799698E+03    0.28966E-03   -0.62457E-04  3208   0.701E-02    0.105E-01
DAV:   4    -0.493127749294E+03    0.50404E-04   -0.13670E-04  2352   0.382E-02
  15 F= -.49312775E+03 E0= -.49311558E+03  d E =-.887923E-02
       N       E                     dE             d eps       ncg     rms          rms(c)
DAV:   1    -0.493128138873E+03   -0.33917E-03   -0.12736E+00  2976   0.225E+00    0.230E-01
DAV:   2    -0.493130871255E+03   -0.27324E-02   -0.26183E-02  3880   0.254E-01    0.268E-01
DAV:   3    -0.493130367261E+03    0.50399E-03   -0.25692E-03  4088   0.120E-01    0.216E-01
DAV:   4    -0.493129936512E+03    0.43075E-03   -0.74392E-04  3344   0.754E-02    0.102E-01
DAV:   5    -0.493129934316E+03    0.21963E-05   -0.44095E-04  2952   0.533E-02
  16 F= -.49312993E+03 E0= -.49311770E+03  d E =-.110642E-01
       N       E                     dE             d eps       ncg     rms          rms(c)
DAV:   1    -0.493132030041E+03   -0.20935E-02   -0.87686E-01  2976   0.191E+00    0.237E-01
DAV:   2    -0.493136774945E+03   -0.47449E-02   -0.21711E-02  4000   0.267E-01    0.535E-01
DAV:   3    -0.493133171416E+03    0.36035E-02   -0.41899E-03  4256   0.173E-01    0.205E-01
DAV:   4    -0.493133386335E+03   -0.21492E-03   -0.10820E-03  3360   0.747E-02    0.127E-01
DAV:   5    -0.493133217873E+03    0.16846E-03   -0.33279E-04  2656   0.438E-02    0.614E-02
DAV:   6    -0.493133277333E+03   -0.59460E-04   -0.21991E-04  2376   0.377E-02
  17 F= -.49313328E+03 E0= -.49312103E+03  d E =-.334302E-02
       N       E                     dE             d eps       ncg     rms          rms(c)
DAV:   1    -0.493133309042E+03   -0.91168E-04   -0.35773E-02  2992   0.388E-01    0.487E-02
DAV:   2    -0.493133442014E+03   -0.13297E-03   -0.82677E-04  3576   0.526E-02    0.738E-02
DAV:   3    -0.493133391985E+03    0.50028E-04   -0.10015E-04  2040   0.305E-02
  18 F= -.49313339E+03 E0= -.49312110E+03  d E =-.345767E-02
       N       E                     dE             d eps       ncg     rms          rms(c)
DAV:   1    -0.493135519503E+03   -0.20775E-02   -0.23913E-01  2976   0.987E-01    0.103E-01
DAV:   2    -0.493136012980E+03   -0.49348E-03   -0.50847E-03  3728   0.111E-01    0.943E-02
DAV:   3    -0.493135963256E+03    0.49724E-04   -0.44358E-04  2880   0.479E-02
  19 F= -.49313596E+03 E0= -.49312365E+03  d E =-.257127E-02
       N       E                     dE             d eps       ncg     rms          rms(c)
DAV:   1    -0.493136098548E+03   -0.85568E-04   -0.15339E+00  2976   0.250E+00    0.255E-01
DAV:   2    -0.493139005306E+03   -0.29068E-02   -0.31866E-02  3816   0.267E-01    0.211E-01
DAV:   3    -0.493139590373E+03   -0.58507E-03   -0.21350E-03  4048   0.129E-01    0.328E-01
DAV:   4    -0.493138221614E+03    0.13688E-02   -0.98214E-04  3848   0.890E-02    0.113E-01
DAV:   5    -0.493138384492E+03   -0.16288E-03   -0.57526E-04  3128   0.581E-02    0.963E-02
DAV:   6    -0.493138304862E+03    0.79631E-04   -0.33095E-04  2968   0.472E-02
  20 F= -.49313830E+03 E0= -.49312589E+03  d E =-.491288E-02
       N       E                     dE             d eps       ncg     rms          rms(c)
DAV:   1    -0.493138232258E+03    0.15223E-03   -0.98111E-02  2928   0.633E-01    0.657E-02
DAV:   2    -0.493138565082E+03   -0.33282E-03   -0.23178E-03  3712   0.828E-02    0.110E-01
DAV:   3    -0.493138415149E+03    0.14993E-03   -0.19454E-04  2440   0.460E-02    0.616E-02
DAV:   4    -0.493138402899E+03    0.12250E-04   -0.58554E-05  1880   0.214E-02
  21 F= -.49313840E+03 E0= -.49312600E+03  d E =-.501091E-02
       N       E                     dE             d eps       ncg     rms          rms(c)
DAV:   1    -0.493139671906E+03   -0.12568E-02   -0.31122E-01  2976   0.112E+00    0.135E-01
DAV:   2    -0.493140821649E+03   -0.11497E-02   -0.76432E-03  3712   0.146E-01    0.213E-01
DAV:   3    -0.493140331846E+03    0.48980E-03   -0.91882E-04  3432   0.820E-02    0.121E-01
DAV:   4    -0.493140335743E+03   -0.38969E-05   -0.28993E-04  2648   0.473E-02
  22 F= -.49314034E+03 E0= -.49312797E+03  d E =-.193284E-02
       N       E                     dE             d eps       ncg     rms          rms(c)
DAV:   1    -0.493140502354E+03   -0.17051E-03   -0.14615E-01  2976   0.767E-01    0.102E-01
DAV:   2    -0.493140954095E+03   -0.45174E-03   -0.35689E-03  3680   0.992E-02    0.131E-01
DAV:   3    -0.493140790843E+03    0.16325E-03   -0.36954E-04  3008   0.527E-02    0.887E-02
DAV:   4    -0.493140796704E+03   -0.58606E-05   -0.15421E-04  2384   0.356E-02
  23 F= -.49314080E+03 E0= -.49312848E+03  d E =-.239380E-02
       N       E                     dE             d eps       ncg     rms          rms(c)
DAV:   1    -0.493141653381E+03   -0.86254E-03   -0.36242E-01  2976   0.117E+00    0.197E-01
DAV:   2    -0.493144480617E+03   -0.28272E-02   -0.10382E-02  4008   0.190E-01    0.442E-01
DAV:   3    -0.493142083032E+03    0.23976E-02   -0.29387E-03  4304   0.143E-01    0.181E-01
DAV:   4    -0.493142153890E+03   -0.70858E-04   -0.79585E-04  3168   0.632E-02
  24 F= -.49314215E+03 E0= -.49312998E+03  d E =-.135719E-02
       N       E                     dE             d eps       ncg     rms          rms(c)
DAV:   1    -0.493142069451E+03    0.13581E-04   -0.24132E-04  2544   0.341E-02    0.509E-02
DAV:   2    -0.493142331041E+03   -0.26159E-03   -0.31934E-04  2864   0.482E-02    0.149E-01
DAV:   3    -0.493142019605E+03    0.31144E-03   -0.16759E-04  2360   0.412E-02    0.335E-02
DAV:   4    -0.493142070733E+03   -0.51128E-04   -0.74839E-05  1968   0.169E-02
  25 F= -.49314207E+03 E0= -.49312989E+03  d E =-.127403E-02
       N       E                     dE             d eps       ncg     rms          rms(c)
DAV:   1    -0.493142169357E+03   -0.14975E-03   -0.21302E-01  2976   0.932E-01    0.109E-01
DAV:   2    -0.493142789836E+03   -0.62048E-03   -0.43637E-03  3936   0.118E-01    0.177E-01
DAV:   3    -0.493142444699E+03    0.34514E-03   -0.55190E-04  3144   0.633E-02    0.970E-02
DAV:   4    -0.493142442097E+03    0.26020E-05   -0.20429E-04  2608   0.373E-02
  26 F= -.49314244E+03 E0= -.49313026E+03  d E =-.371364E-03
       N       E                     dE             d eps       ncg     rms          rms(c)
DAV:   1    -0.493142410674E+03    0.34025E-04   -0.13125E-02  3008   0.232E-01    0.273E-02
DAV:   2    -0.493142460504E+03   -0.49830E-04   -0.31553E-04  2656   0.328E-02
  27 F= -.49314246E+03 E0= -.49313031E+03  d E =-.389771E-03
       N       E                     dE             d eps       ncg     rms          rms(c)
DAV:   1    -0.493142918633E+03   -0.50796E-03   -0.16813E-01  2976   0.822E-01    0.129E-01
DAV:   2    -0.493144157522E+03   -0.12389E-02   -0.49841E-03  3976   0.135E-01    0.282E-01
DAV:   3    -0.493143122128E+03    0.10354E-02   -0.11810E-03  3976   0.931E-02    0.111E-01
DAV:   4    -0.493143194394E+03   -0.72266E-04   -0.33950E-04  2840   0.421E-02
  28 F= -.49314319E+03 E0= -.49313102E+03  d E =-.733890E-03
       N       E                     dE             d eps       ncg     rms          rms(c)
DAV:   1    -0.493143134795E+03   -0.12666E-04   -0.25631E-03  2896   0.103E-01    0.313E-02
DAV:   2    -0.493143242856E+03   -0.10806E-03   -0.18303E-04  2272   0.380E-02    0.875E-02
DAV:   3    -0.493143125226E+03    0.11763E-03   -0.70394E-05  1832   0.277E-02    0.152E-02
DAV:   4    -0.493143146305E+03   -0.21079E-04   -0.21898E-05  1736   0.104E-02
  29 F= -.49314315E+03 E0= -.49313098E+03  d E =-.685801E-03
       N       E                     dE             d eps       ncg     rms          rms(c)
DAV:   1    -0.493143349535E+03   -0.22431E-03   -0.78680E-02  2976   0.556E-01    0.867E-02
DAV:   2    -0.493144009196E+03   -0.65966E-03   -0.24529E-03  3864   0.900E-02    0.213E-01
DAV:   3    -0.493143418660E+03    0.59054E-03   -0.58811E-04  3120   0.662E-02    0.729E-02
DAV:   4    -0.493143470435E+03   -0.51775E-04   -0.16507E-04  2384   0.286E-02
  30 F= -.49314347E+03 E0= -.49313132E+03  d E =-.324130E-03
       N       E                     dE             d eps       ncg     rms          rms(c)
DAV:   1    -0.493143448134E+03   -0.29473E-04   -0.56802E-05  1752   0.174E-02    0.214E-02
DAV:   2    -0.493143494600E+03   -0.46467E-04   -0.38673E-05  1824   0.209E-02
  31 F= -.49314349E+03 E0= -.49313138E+03  d E =-.348295E-03
       N       E                     dE             d eps       ncg     rms          rms(c)
DAV:   1    -0.493143438002E+03    0.10132E-04   -0.35599E-05  1736   0.196E-02    0.134E-02
DAV:   2    -0.493143461516E+03   -0.23514E-04   -0.14339E-05  1648   0.126E-02
  32 F= -.49314346E+03 E0= -.49313133E+03  d E =-.315211E-03
       N       E                     dE             d eps       ncg     rms          rms(c)
DAV:   1    -0.493143646302E+03   -0.20830E-03   -0.59152E-02  2928   0.495E-01    0.543E-02
DAV:   2    -0.493143792598E+03   -0.14630E-03   -0.12819E-03  3624   0.578E-02    0.689E-02
DAV:   3    -0.493143756454E+03    0.36144E-04   -0.10308E-04  2208   0.290E-02
  33 F= -.49314376E+03 E0= -.49313163E+03  d E =-.294938E-03
       N       E                     dE             d eps       ncg     rms          rms(c)
DAV:   1    -0.493143762910E+03    0.29688E-04   -0.47245E-03  2968   0.142E-01    0.415E-02
DAV:   2    -0.493143926879E+03   -0.16397E-03   -0.20369E-04  2696   0.404E-02    0.117E-01
DAV:   3    -0.493143731107E+03    0.19577E-03   -0.85400E-05  2240   0.324E-02    0.348E-02
DAV:   4    -0.493143749158E+03   -0.18051E-04   -0.30563E-05  1768   0.128E-02
  34 F= -.49314375E+03 E0= -.49313159E+03  d E =-.287642E-03
       N       E                     dE             d eps       ncg     rms          rms(c)
DAV:   1    -0.493143914514E+03   -0.18341E-03   -0.14727E-02  2952   0.245E-01    0.494E-02
DAV:   2    -0.493144061135E+03   -0.14662E-03   -0.56164E-04  3112   0.462E-02    0.106E-01
DAV:   3    -0.493143905861E+03    0.15527E-03   -0.18036E-04  2160   0.340E-02    0.288E-02
DAV:   4    -0.493143933207E+03   -0.27346E-04   -0.66895E-05  1872   0.179E-02
  35 F= -.49314393E+03 E0= -.49313175E+03  d E =-.184049E-03
       N       E                     dE             d eps       ncg     rms          rms(c)
DAV:   1    -0.493143917558E+03   -0.11697E-04   -0.59493E-04  2752   0.508E-02    0.120E-02
DAV:   2    -0.493143940517E+03   -0.22959E-04   -0.24695E-05  1736   0.150E-02
  36 F= -.49314394E+03 E0= -.49313173E+03  d E =-.191359E-03
