 vasp.6.1.2 22Jul20 (build Jun  1 2021 15:15:33) complex                         
 executed on             LinuxPGI date 2024.07.01  01:39:41
 running on   32 total cores
 distrk:  each k-point on   32 cores,    1 groups
 distr:  one band on NCORE=   4 cores,    8 groups


--------------------------------------------------------------------------------------------------------


 INCAR:
 POTCAR:    PAW_PBE Ga 08Apr2002                  
 POTCAR:    PAW_PBE N 08Apr2002                   
 POTCAR:    PAW_PBE Ga 08Apr2002                  
   SHA256 =  023a37ab0b797ff5f2482c75273bbcab161c7187972ce51a2c47c8a86975dbe0 Ga/POTCAR             
   COPYR  = (c) Copyright 08Apr2002 Georg Kresse                                                    
   COPYR  = This file is part of the software VASP. Any use, copying, and all other rights are regul
   COPYR  = If you do not have a valid VASP license, you may not use, copy or distribute this file. 
   VRHFIN =Ga: s2p1                                                                                 
   LEXCH  = PE                                                                                      
   EATOM  =    58.8688 eV,    4.3267 Ry                                                             
                                                                                                    
   TITEL  = PAW_PBE Ga 08Apr2002                                                                    
   LULTRA =        F    use ultrasoft PP ?                                                          
   IUNSCR =        1    unscreen: 0-lin 1-nonlin 2-no                                               
   RPACOR =    2.170    partial core radius                                                         
   POMASS =   69.723; ZVAL   =    3.000    mass and valenz                                          
   RCORE  =    2.600    outmost cutoff radius                                                       
   RWIGS  =    2.650; RWIGS  =    1.402    wigner-seitz radius (au A)                               
   ENMAX  =  134.678; ENMIN  =  101.009 eV                                                          
   ICORE  =        3    local potential                                                             
   LCOR   =        T    correct aug charges                                                         
   LPAW   =        T    paw PP                                                                      
   EAUG   =  320.264                                                                                
   DEXC   =    0.000                                                                                
   RMAX   =    2.658    core radius for proj-oper                                                   
   RAUG   =    1.300    factor for augmentation sphere                                              
   RDEP   =    2.684    radius for radial grids                                                     
   RDEPT  =    2.308    core radius for aug-charge                                                  
                                                                                                    
   Atomic configuration                                                                             
   10 entries                                                                                       
     n  l   j            E        occ.                                                              
     1  0  0.50    -10228.7830   2.0000                                                             
     2  0  0.50     -1262.1604   2.0000                                                             
     2  1  1.50     -1098.6333   6.0000                                                             
     3  0  0.50      -148.1110   2.0000                                                             
     3  1  1.50       -98.8436   6.0000                                                             
     3  2  2.50       -19.1549  10.0000                                                             
     4  0  0.50        -8.9483   2.0000                                                             
     4  1  0.50        -2.5791   1.0000                                                             
     4  2  1.50         5.4423   0.0000                                                             
     4  3  2.50        -2.7416   0.0000                                                             
   Description                                                                                      
     l       E           TYP  RCUT    TYP  RCUT                                                     
     0     -8.9483097     23  2.600                                                                 
     0     -5.8232215     23  2.600                                                                 
     1     -2.5790793     23  2.600                                                                 
     1      5.2230115     23  2.600                                                                 
     2      1.3605826     23  2.600                                                                 
     3     -1.3605826      7  2.600                                                                 
  local pseudopotential read in
  partial core-charges read in
  partial kinetic energy density read in
  atomic valenz-charges read in
  non local Contribution for L=            0  read in
    real space projection operators read in
  non local Contribution for L=            0  read in
    real space projection operators read in
  non local Contribution for L=            1  read in
    real space projection operators read in
  non local Contribution for L=            1  read in
    real space projection operators read in
  non local Contribution for L=            2  read in
    real space projection operators read in
    PAW grid and wavefunctions read in
 
   number of l-projection  operators is LMAX  =            5
   number of lm-projection operators is LMMAX =           13
 
 POTCAR:    PAW_PBE N 08Apr2002                   
   SHA256 =  e053789ff3a61a86a1b75d8a110fcc91f86041011e7b0817c7c99e4e8a6349d7 N/POTCAR              
   COPYR  = (c) Copyright 08Apr2002 Georg Kresse                                                    
   COPYR  = This file is part of the software VASP. Any use, copying, and all other rights are regul
   COPYR  = If you do not have a valid VASP license, you may not use, copy or distribute this file. 
   VRHFIN =N: s2p3                                                                                  
   LEXCH  = PE                                                                                      
   EATOM  =   264.5486 eV,   19.4438 Ry                                                             
                                                                                                    
   TITEL  = PAW_PBE N 08Apr2002                                                                     
   LULTRA =        F    use ultrasoft PP ?                                                          
   IUNSCR =        1    unscreen: 0-lin 1-nonlin 2-no                                               
   RPACOR =    1.200    partial core radius                                                         
   POMASS =   14.001; ZVAL   =    5.000    mass and valenz                                          
   RCORE  =    1.500    outmost cutoff radius                                                       
   RWIGS  =    1.400; RWIGS  =    0.741    wigner-seitz radius (au A)                               
   ENMAX  =  400.000; ENMIN  =  300.000 eV                                                          
   ICORE  =        2    local potential                                                             
   LCOR   =        T    correct aug charges                                                         
   LPAW   =        T    paw PP                                                                      
   EAUG   =  627.112                                                                                
   DEXC   =    0.000                                                                                
   RMAX   =    1.529    core radius for proj-oper                                                   
   RAUG   =    1.300    factor for augmentation sphere                                              
   RDEP   =    1.514    radius for radial grids                                                     
   RDEPT  =    1.338    core radius for aug-charge                                                  
                                                                                                    
   Atomic configuration                                                                             
    4 entries                                                                                       
     n  l   j            E        occ.                                                              
     1  0  0.50      -384.7179   2.0000                                                             
     2  0  0.50       -18.5828   2.0000                                                             
     2  1  0.50        -7.0898   3.0000                                                             
     3  2  1.50        -6.8029   0.0000                                                             
   Description                                                                                      
     l       E           TYP  RCUT    TYP  RCUT                                                     
     0    -18.5828119     23  1.200                                                                 
     0    -13.5018863     23  1.200                                                                 
     1     -7.0897853     23  1.500                                                                 
     1      9.5240782     23  1.500                                                                 
     2     -6.8029130      7  1.500                                                                 
  local pseudopotential read in
  partial core-charges read in
  partial kinetic energy density read in
  atomic valenz-charges read in
  non local Contribution for L=            0  read in
    real space projection operators read in
  non local Contribution for L=            0  read in
    real space projection operators read in
  non local Contribution for L=            1  read in
    real space projection operators read in
  non local Contribution for L=            1  read in
    real space projection operators read in
    PAW grid and wavefunctions read in
 
   number of l-projection  operators is LMAX  =            4
   number of lm-projection operators is LMMAX =            8
 
 Optimization of the real space projectors (new method)

 maximal supplied QI-value         = 14.36
 optimisation between [QCUT,QGAM] = [  9.48, 19.10] = [ 25.16,102.17] Ry 
 Optimized for a Real-space Cutoff    1.43 Angstroem

   l    n(q)    QCUT    max X(q) W(low)/X(q) W(high)/X(q)  e(spline) 
   0      8     9.479    81.156    0.16E-03    0.65E-04    0.73E-07
   0      8     9.479    65.205    0.16E-03    0.69E-04    0.73E-07
   1      8     9.479    44.874    0.72E-04    0.49E-03    0.13E-06
   1      8     9.479    25.010    0.90E-04    0.49E-03    0.14E-06
   2      7     9.479     5.217    0.28E-03    0.20E-03    0.43E-07
 Optimization of the real space projectors (new method)

 maximal supplied QI-value         = 25.13
 optimisation between [QCUT,QGAM] = [  9.55, 19.10] = [ 25.54,102.17] Ry 
 Optimized for a Real-space Cutoff    1.82 Angstroem

   l    n(q)    QCUT    max X(q) W(low)/X(q) W(high)/X(q)  e(spline) 
   0     10     9.551    79.467    0.50E-04    0.71E-04    0.84E-06
   0     10     9.551    66.151    0.50E-04    0.71E-04    0.83E-06
   1     10     9.551     6.738    0.44E-03    0.12E-02    0.55E-05
   1     10     9.551     5.013    0.43E-03    0.12E-02    0.54E-05
 -----------------------------------------------------------------------------
|                                                                             |
|               ----> ADVICE to this user running VASP <----                  |
|                                                                             |
|     You enforced a specific xc type in the INCAR file but a different       |
|     type was found in the POTCAR file.                                      |
|     I HOPE YOU KNOW WHAT YOU ARE DOING!                                     |
|                                                                             |
 -----------------------------------------------------------------------------

  PAW_PBE Ga 08Apr2002                  :
 energy of atom  1       EATOM=  -58.8688
 kinetic energy error for atom=    0.0001 (will be added to EATOM!!)
  PAW_PBE N 08Apr2002                   :
 energy of atom  2       EATOM= -264.5486
 kinetic energy error for atom=    0.2274 (will be added to EATOM!!)
 
 
 POSCAR: Ga  N
  positions in cartesian coordinates
  No initial velocities read in
 exchange correlation table for  LEXCH =        9
   RHO(1)=    0.500       N(1)  =     2000
   RHO(2)=  100.500       N(2)  =     4000
 


--------------------------------------------------------------------------------------------------------


 ion  position               nearest neighbor table
   1  0.000  0.237  0.609-  55 2.00  50 2.00  82 2.00  33 3.27  17 3.27   4 3.27  38 3.27   6 3.27
                            39 3.27   7 3.27
   2  0.000  0.206  0.422-  53 2.00  56 2.00  51 2.00  83 2.00  18 3.27  34 3.27   3 3.27   6 3.27
                            38 3.27   8 3.27  37 3.27   5 3.27  40 3.27
   3  0.000  0.049  0.484-  54 2.00  53 2.00  52 2.00  84 2.00  19 3.27  35 3.27   2 3.27  12 3.27
                             8 3.27   7 3.27  39 3.27  40 3.27  38 3.27   6 3.27  13 3.27  45 3.27
   4  0.000  0.393  0.547-  55 2.00  62 2.00  49 2.00  81 2.00  20 3.27  36 3.27   1 3.27  11 3.27
                             5 3.27  37 3.27  15 3.27   6 3.27  38 3.27  47 3.27
   5  0.167  0.378  0.453-  72 2.00  49 2.00  60 2.00  56 2.00  21 3.27  20 3.27  18 3.27  27 3.27
                             6 3.27  16 3.27   4 3.27  11 3.27   2 3.27  37 3.27
   6  0.167  0.221  0.516-  69 2.00  50 2.00  49 2.00  53 2.00  22 3.27  18 3.27  17 3.27  20 3.27
                            19 3.27   7 3.27   5 3.27   2 3.27   1 3.27   4 3.27   3 3.27  38 3.27
   7  0.167  0.065  0.578-  70 2.00  50 2.00  54 2.00  23 3.27  19 3.27  28 3.27  17 3.27   6 3.27
                             3 3.27  12 3.27   1 3.27  39 3.27
   8  0.167  0.034  0.391-  52 2.00  51 2.00  24 3.27  19 3.27  18 3.27  13 3.27   3 3.27   2 3.27
                            40 3.27
   9  0.000  0.737  0.609-  63 2.00  58 2.00  90 2.00  41 3.27  25 3.27  12 3.27  46 3.27  14 3.27
                            47 3.27  15 3.27
  10  0.000  0.706  0.422-  61 2.00  64 2.00  59 2.00  91 2.00  26 3.27  42 3.27  11 3.27  14 3.27
                            46 3.27  16 3.27  45 3.27  13 3.27  48 3.27
  11  0.000  0.549  0.484-  62 2.00  61 2.00  60 2.00  92 2.00  27 3.27  43 3.27   4 3.27  10 3.27
                            15 3.27  16 3.27  47 3.27  48 3.27  14 3.27  46 3.27   5 3.27  37 3.27
  12  0.000  0.893  0.547-  63 2.00  54 2.00  57 2.00  89 2.00  28 3.27  44 3.27   3 3.27   9 3.27
                            13 3.27  45 3.27  39 3.27  14 3.27   7 3.27  46 3.27
  13  0.167  0.878  0.453-  80 2.00  57 2.00  52 2.00  64 2.00  29 3.27  28 3.27  19 3.27  26 3.27
                             8 3.27  14 3.27  12 3.27   3 3.27  10 3.27  45 3.27
  14  0.167  0.721  0.516-  77 2.00  58 2.00  57 2.00  61 2.00  30 3.27  26 3.27  25 3.27  28 3.27
                            27 3.27  15 3.27  13 3.27  10 3.27   9 3.27  12 3.27  11 3.27  46 3.27
  15  0.167  0.565  0.578-  78 2.00  58 2.00  62 2.00  31 3.27  27 3.27  25 3.27  20 3.27  14 3.27
                            11 3.27   9 3.27   4 3.27  47 3.27
  16  0.167  0.534  0.391-  60 2.00  59 2.00  32 3.27  27 3.27  26 3.27   5 3.27  11 3.27  10 3.27
                            48 3.27
  17  0.333  0.237  0.609-  50 2.00  71 2.00  66 2.00   1 3.27   6 3.27   7 3.27  20 3.27  22 3.27
                            23 3.27  33 3.27
  18  0.333  0.206  0.422-  51 2.00  69 2.00  72 2.00  67 2.00   2 3.27   6 3.27   5 3.27   8 3.27
                            19 3.27  22 3.27  21 3.27  24 3.27  34 3.27
  19  0.333  0.049  0.484-  52 2.00  70 2.00  69 2.00  68 2.00   3 3.27   7 3.27   8 3.27   6 3.27
                            13 3.27  18 3.27  28 3.27  24 3.27  23 3.27  22 3.27  29 3.27  35 3.27
  20  0.333  0.393  0.547-  49 2.00  71 2.00  78 2.00  65 2.00   4 3.27   5 3.27   6 3.27  15 3.27
                            17 3.27  27 3.27  21 3.27  22 3.27  31 3.27  36 3.27
  21  0.500  0.378  0.453-  65 2.00  76 2.00  72 2.00  88 2.00   5 3.27  37 3.27  32 3.27  22 3.27
                            36 3.27  20 3.27  34 3.27  27 3.27  18 3.27  43 3.27
  22  0.500  0.221  0.516-  66 2.00  65 2.00  69 2.00  85 2.00   6 3.27  38 3.27  23 3.27  21 3.27
                            18 3.27  33 3.27  34 3.27  17 3.27  20 3.27  35 3.27  36 3.27  19 3.27
  23  0.500  0.065  0.578-  66 2.00  70 2.00  86 2.00  39 3.27   7 3.27  22 3.27  19 3.27  35 3.27
                            44 3.27  33 3.27  17 3.27  28 3.27
  24  0.500  0.034  0.391-  68 2.00  67 2.00   8 3.27  40 3.27  29 3.27  35 3.27  19 3.27  18 3.27
                            34 3.27
  25  0.333  0.737  0.609-  58 2.00  79 2.00  74 2.00   9 3.27  14 3.27  15 3.27  28 3.27  30 3.27
                            31 3.27  41 3.27
  26  0.333  0.706  0.422-  59 2.00  77 2.00  80 2.00  75 2.00  10 3.27  14 3.27  13 3.27  16 3.27
                            27 3.27  30 3.27  29 3.27  32 3.27  42 3.27
  27  0.333  0.549  0.484-  60 2.00  78 2.00  77 2.00  76 2.00  11 3.27  15 3.27  16 3.27   5 3.27
                            14 3.27  20 3.27  26 3.27  31 3.27  32 3.27  21 3.27  30 3.27  43 3.27
  28  0.333  0.893  0.547-  57 2.00  79 2.00  70 2.00  73 2.00  12 3.27  13 3.27   7 3.27  14 3.27
                            19 3.27  25 3.27  29 3.27  23 3.27  30 3.27  44 3.27
  29  0.500  0.878  0.453-  73 2.00  68 2.00  80 2.00  96 2.00  13 3.27  45 3.27  30 3.27  24 3.27
                            44 3.27  28 3.27  35 3.27  42 3.27  19 3.27  26 3.27
  30  0.500  0.721  0.516-  74 2.00  73 2.00  77 2.00  93 2.00  14 3.27  46 3.27  31 3.27  29 3.27
                            26 3.27  41 3.27  42 3.27  25 3.27  28 3.27  43 3.27  44 3.27  27 3.27
  31  0.500  0.565  0.578-  74 2.00  78 2.00  94 2.00  47 3.27  15 3.27  30 3.27  27 3.27  43 3.27
                            25 3.27  36 3.27  41 3.27  20 3.27
  32  0.500  0.534  0.391-  76 2.00  75 2.00  16 3.27  48 3.27  21 3.27  43 3.27  27 3.27  26 3.27
                            42 3.27
  33  0.667  0.237  0.609-  82 2.00  87 2.00  66 2.00   1 3.27  38 3.27  39 3.27  36 3.27  22 3.27
                            23 3.27  17 3.27
  34  0.667  0.206  0.422-  83 2.00  85 2.00  88 2.00  67 2.00   2 3.27  38 3.27  37 3.27  40 3.27
                            35 3.27  22 3.27  21 3.27  24 3.27  18 3.27
  35  0.667  0.049  0.484-  84 2.00  86 2.00  85 2.00  68 2.00   3 3.27  39 3.27  40 3.27  38 3.27
                            45 3.27  44 3.27  34 3.27  23 3.27  24 3.27  22 3.27  29 3.27  19 3.27
  36  0.667  0.393  0.547-  81 2.00  87 2.00  94 2.00  65 2.00   4 3.27  37 3.27  38 3.27  47 3.27
                            43 3.27  33 3.27  21 3.27  31 3.27  22 3.27  20 3.27
  37  0.833  0.378  0.453-  88 2.00  81 2.00  92 2.00  56 2.00  21 3.27  36 3.27  34 3.27  43 3.27
                            38 3.27  48 3.27   4 3.27   2 3.27  11 3.27   5 3.27
  38  0.833  0.221  0.516-  85 2.00  82 2.00  81 2.00  53 2.00  22 3.27  33 3.27  34 3.27  35 3.27
                            36 3.27  37 3.27  39 3.27   2 3.27   1 3.27   4 3.27   3 3.27   6 3.27
  39  0.833  0.065  0.578-  86 2.00  82 2.00  54 2.00  23 3.27  35 3.27  44 3.27  33 3.27  38 3.27
                             3 3.27   1 3.27  12 3.27   7 3.27
  40  0.833  0.034  0.391-  84 2.00  83 2.00  24 3.27  35 3.27  34 3.27  45 3.27   3 3.27   2 3.27
                             8 3.27
  41  0.667  0.737  0.609-  90 2.00  95 2.00  74 2.00   9 3.27  46 3.27  47 3.27  44 3.27  30 3.27
                            31 3.27  25 3.27
  42  0.667  0.706  0.422-  91 2.00  93 2.00  96 2.00  75 2.00  10 3.27  46 3.27  45 3.27  48 3.27
                            43 3.27  30 3.27  29 3.27  32 3.27  26 3.27
  43  0.667  0.549  0.484-  92 2.00  94 2.00  93 2.00  76 2.00  11 3.27  47 3.27  48 3.27  37 3.27
                            46 3.27  42 3.27  36 3.27  31 3.27  32 3.27  21 3.27  30 3.27  27 3.27
  44  0.667  0.893  0.547-  89 2.00  95 2.00  86 2.00  73 2.00  12 3.27  45 3.27  39 3.27  46 3.27
                            35 3.27  41 3.27  29 3.27  30 3.27  23 3.27  28 3.27
  45  0.833  0.878  0.453-  96 2.00  89 2.00  84 2.00  64 2.00  29 3.27  44 3.27  42 3.27  35 3.27
                            40 3.27  46 3.27  12 3.27  10 3.27   3 3.27  13 3.27
  46  0.833  0.721  0.516-  93 2.00  90 2.00  89 2.00  61 2.00  30 3.27  41 3.27  42 3.27  43 3.27
                            44 3.27  45 3.27  47 3.27  10 3.27   9 3.27  12 3.27  11 3.27  14 3.27
  47  0.833  0.565  0.578-  94 2.00  90 2.00  62 2.00  31 3.27  43 3.27  36 3.27  41 3.27  46 3.27
                            11 3.27   9 3.27   4 3.27  15 3.27
  48  0.833  0.534  0.391-  92 2.00  91 2.00  32 3.27  43 3.27  42 3.27  37 3.27  11 3.27  10 3.27
                            16 3.27
  49  0.167  0.346  0.516-  20 2.00   5 2.00   6 2.00   4 2.00
  50  0.167  0.190  0.578-  17 2.00   6 2.00   7 2.00   1 2.00
  51  0.167  0.159  0.391-  18 2.00   8 2.00   2 2.00
  52  0.167  0.003  0.453-  19 2.00   8 2.00  13 2.00   3 2.00
  53  0.000  0.174  0.484-   2 2.00   3 2.00   6 2.00  38 2.00
  54  0.000  0.018  0.547-   3 2.00  12 2.00   7 2.00  39 2.00
  55  0.000  0.362  0.609-   4 2.00   1 2.00
  56  0.000  0.331  0.422-   2 2.00   5 2.00  37 2.00
  57  0.167  0.846  0.516-  28 2.00  13 2.00  14 2.00  12 2.00
  58  0.167  0.690  0.578-  25 2.00  14 2.00  15 2.00   9 2.00
  59  0.167  0.659  0.391-  26 2.00  16 2.00  10 2.00
  60  0.167  0.503  0.453-  27 2.00  16 2.00   5 2.00  11 2.00
  61  0.000  0.674  0.484-  10 2.00  11 2.00  14 2.00  46 2.00
  62  0.000  0.518  0.547-  11 2.00   4 2.00  15 2.00  47 2.00
  63  0.000  0.862  0.609-  12 2.00   9 2.00
  64  0.000  0.831  0.422-  10 2.00  13 2.00  45 2.00
  65  0.500  0.346  0.516-  21 2.00  22 2.00  20 2.00  36 2.00
  66  0.500  0.190  0.578-  22 2.00  23 2.00  17 2.00  33 2.00
  67  0.500  0.159  0.391-  24 2.00  18 2.00  34 2.00
  68  0.500  0.003  0.453-  24 2.00  29 2.00  19 2.00  35 2.00
  69  0.333  0.174  0.484-   6 2.00  18 2.00  19 2.00  22 2.00
  70  0.333  0.018  0.547-   7 2.00  19 2.00  28 2.00  23 2.00
  71  0.333  0.362  0.609-  20 2.00  17 2.00
  72  0.333  0.331  0.422-   5 2.00  18 2.00  21 2.00
  73  0.500  0.846  0.516-  29 2.00  30 2.00  28 2.00  44 2.00
  74  0.500  0.690  0.578-  30 2.00  31 2.00  25 2.00  41 2.00
  75  0.500  0.659  0.391-  32 2.00  26 2.00  42 2.00
  76  0.500  0.503  0.453-  32 2.00  21 2.00  27 2.00  43 2.00
  77  0.333  0.674  0.484-  14 2.00  26 2.00  27 2.00  30 2.00
  78  0.333  0.518  0.547-  15 2.00  27 2.00  20 2.00  31 2.00
  79  0.333  0.862  0.609-  28 2.00  25 2.00
  80  0.333  0.831  0.422-  13 2.00  26 2.00  29 2.00
  81  0.833  0.346  0.516-  36 2.00  37 2.00  38 2.00   4 2.00
  82  0.833  0.190  0.578-  33 2.00  38 2.00  39 2.00   1 2.00
  83  0.833  0.159  0.391-  34 2.00  40 2.00   2 2.00
  84  0.833  0.003  0.453-  35 2.00  40 2.00  45 2.00   3 2.00
  85  0.667  0.174  0.484-  38 2.00  34 2.00  35 2.00  22 2.00
  86  0.667  0.018  0.547-  39 2.00  35 2.00  44 2.00  23 2.00
  87  0.667  0.362  0.609-  36 2.00  33 2.00
  88  0.667  0.331  0.422-  37 2.00  34 2.00  21 2.00
  89  0.833  0.846  0.516-  44 2.00  45 2.00  46 2.00  12 2.00
  90  0.833  0.690  0.578-  41 2.00  46 2.00  47 2.00   9 2.00
  91  0.833  0.659  0.391-  42 2.00  48 2.00  10 2.00
  92  0.833  0.503  0.453-  43 2.00  48 2.00  37 2.00  11 2.00
  93  0.667  0.674  0.484-  46 2.00  42 2.00  43 2.00  30 2.00
  94  0.667  0.518  0.547-  47 2.00  43 2.00  36 2.00  31 2.00
  95  0.667  0.862  0.609-  44 2.00  41 2.00
  96  0.667  0.831  0.422-  45 2.00  42 2.00  29 2.00
 

IMPORTANT INFORMATION: All symmetrisations will be switched off!
NOSYMM: (Re-)initialisation of all symmetry stuff for point group C_1.


----------------------------------------------------------------------------------------

                                     Primitive cell                                     

  volume of cell :    4728.1261

  direct lattice vectors                    reciprocal lattice vectors
     9.796904190  0.000000000 -0.000000000     0.102073061  0.000000000 -0.000000000
    -0.000000000 15.936148090 -1.408569800    -0.000000000  0.062750421  0.000000000
     0.000000000  0.000000000 30.284250640     0.000000000  0.002918624  0.033020464

  length of vectors
     9.796904190 15.998277558 30.284250640     0.102073061  0.062750421  0.033149199

  position of ions in fractional coordinates (direct lattice)
     0.000000000  0.236901540  0.609375000
     0.000000000  0.205651540  0.421875000
     0.000000000  0.049401540  0.484375000
     0.000000000  0.393151540  0.546875000
     0.166666670  0.377526540  0.453125000
     0.166666670  0.221276540  0.515625000
     0.166666670  0.065026540  0.578125000
     0.166666670  0.033776540  0.390625000
     0.000000000  0.736901540  0.609375000
     0.000000000  0.705651540  0.421875000
     0.000000000  0.549401540  0.484375000
     0.000000000  0.893151540  0.546875000
     0.166666670  0.877526540  0.453125000
     0.166666670  0.721276540  0.515625000
     0.166666670  0.565026540  0.578125000
     0.166666670  0.533776540  0.390625000
     0.333333330  0.236901540  0.609375000
     0.333333330  0.205651540  0.421875000
     0.333333330  0.049401540  0.484375000
     0.333333330  0.393151540  0.546875000
     0.500000000  0.377526540  0.453125000
     0.500000000  0.221276540  0.515625000
     0.500000000  0.065026540  0.578125000
     0.500000000  0.033776540  0.390625000
     0.333333330  0.736901540  0.609375000
     0.333333330  0.705651540  0.421875000
     0.333333330  0.549401540  0.484375000
     0.333333330  0.893151540  0.546875000
     0.500000000  0.877526540  0.453125000
     0.500000000  0.721276540  0.515625000
     0.500000000  0.565026540  0.578125000
     0.500000000  0.533776540  0.390625000
     0.666666670  0.236901540  0.609375000
     0.666666670  0.205651540  0.421875000
     0.666666670  0.049401540  0.484375000
     0.666666670  0.393151540  0.546875000
     0.833333330  0.377526540  0.453125000
     0.833333330  0.221276540  0.515625000
     0.833333330  0.065026540  0.578125000
     0.833333330  0.033776540  0.390625000
     0.666666670  0.736901540  0.609375000
     0.666666670  0.705651540  0.421875000
     0.666666670  0.549401540  0.484375000
     0.666666670  0.893151540  0.546875000
     0.833333330  0.877526540  0.453125000
     0.833333330  0.721276540  0.515625000
     0.833333330  0.565026540  0.578125000
     0.833333330  0.533776540  0.390625000
     0.166666670  0.346276540  0.515625000
     0.166666670  0.190026540  0.578125000
     0.166666670  0.158776540  0.390625000
     0.166666670  0.002526540  0.453125000
     0.000000000  0.174401540  0.484375000
     0.000000000  0.018151540  0.546875000
     0.000000000  0.361901540  0.609375000
     0.000000000  0.330651540  0.421875000
     0.166666670  0.846276540  0.515625000
     0.166666670  0.690026540  0.578125000
     0.166666670  0.658776540  0.390625000
     0.166666670  0.502526540  0.453125000
     0.000000000  0.674401540  0.484375000
     0.000000000  0.518151540  0.546875000
     0.000000000  0.861901540  0.609375000
     0.000000000  0.830651540  0.421875000
     0.500000000  0.346276540  0.515625000
     0.500000000  0.190026540  0.578125000
     0.500000000  0.158776540  0.390625000
     0.500000000  0.002526540  0.453125000
     0.333333330  0.174401540  0.484375000
     0.333333330  0.018151540  0.546875000
     0.333333330  0.361901540  0.609375000
     0.333333330  0.330651540  0.421875000
     0.500000000  0.846276540  0.515625000
     0.500000000  0.690026540  0.578125000
     0.500000000  0.658776540  0.390625000
     0.500000000  0.502526540  0.453125000
     0.333333330  0.674401540  0.484375000
     0.333333330  0.518151540  0.546875000
     0.333333330  0.861901540  0.609375000
     0.333333330  0.830651540  0.421875000
     0.833333330  0.346276540  0.515625000
     0.833333330  0.190026540  0.578125000
     0.833333330  0.158776540  0.390625000
     0.833333330  0.002526540  0.453125000
     0.666666670  0.174401540  0.484375000
     0.666666670  0.018151540  0.546875000
     0.666666670  0.361901540  0.609375000
     0.666666670  0.330651540  0.421875000
     0.833333330  0.846276540  0.515625000
     0.833333330  0.690026540  0.578125000
     0.833333330  0.658776540  0.390625000
     0.833333330  0.502526540  0.453125000
     0.666666670  0.674401540  0.484375000
     0.666666670  0.518151540  0.546875000
     0.666666670  0.861901540  0.609375000
     0.666666670  0.830651540  0.421875000

  ion indices of the primitive-cell ions
   primitive index   ion index
                 1           1
                 2           2
                 3           3
                 4           4
                 5           5
                 6           6
                 7           7
                 8           8
                 9           9
                10          10
                11          11
                12          12
                13          13
                14          14
                15          15
                16          16
                17          17
                18          18
                19          19
                20          20
                21          21
                22          22
                23          23
                24          24
                25          25
                26          26
                27          27
                28          28
                29          29
                30          30
                31          31
                32          32
                33          33
                34          34
                35          35
                36          36
                37          37
                38          38
                39          39
                40          40
                41          41
                42          42
                43          43
                44          44
                45          45
                46          46
                47          47
                48          48
                49          49
                50          50
                51          51
                52          52
                53          53
                54          54
                55          55
                56          56
                57          57
                58          58
                59          59
                60          60
                61          61
                62          62
                63          63
                64          64
                65          65
                66          66
                67          67
                68          68
                69          69
                70          70
                71          71
                72          72
                73          73
                74          74
                75          75
                76          76
                77          77
                78          78
                79          79
                80          80
                81          81
                82          82
                83          83
                84          84
                85          85
                86          86
                87          87
                88          88
                89          89
                90          90
                91          91
                92          92
                93          93
                94          94
                95          95
                96          96

----------------------------------------------------------------------------------------

 
 
 KPOINTS: KPOINTS created by Atomic Simulation Env

Automatic generation of k-mesh.
Space group operators:
 irot       det(A)        alpha          n_x          n_y          n_z        tau_x        tau_y        tau_z
    1     1.000000     0.000000     1.000000     0.000000     0.000000     0.000000     0.000000     0.000000
 
 Subroutine IBZKPT returns following result:
 ===========================================
 
 Found      6 irreducible k-points:
 
 Following reciprocal coordinates:
            Coordinates               Weight
  0.125000  0.000000  0.000000      2.000000
  0.375000  0.000000  0.000000      2.000000
  0.125000  0.333333  0.000000      2.000000
  0.125000 -0.333333  0.000000      2.000000
  0.375000  0.333333  0.000000      2.000000
  0.375000 -0.333333  0.000000      2.000000
 
 Following cartesian coordinates:
            Coordinates               Weight
  0.012759  0.000000  0.000000      2.000000
  0.038277  0.000000  0.000000      2.000000
  0.012759  0.020917  0.000000      2.000000
  0.012759 -0.020917  0.000000      2.000000
  0.038277  0.020917  0.000000      2.000000
  0.038277 -0.020917  0.000000      2.000000
 


--------------------------------------------------------------------------------------------------------




 Dimension of arrays:
   k-points           NKPTS =      6   k-points in BZ     NKDIM =      6   number of bands    NBANDS=    248
   number of dos      NEDOS =    301   number of ions     NIONS =     96
   non local maximal  LDIM  =      5   non local SUM 2l+1 LMDIM =     13
   total plane-waves  NPLWV = 537600
   max r-space proj   IRMAX =   2898   max aug-charges    IRDMAX=   8371
   dimension x,y,z NGX =    48 NGY =   80 NGZ =  140
   dimension x,y,z NGXF=    96 NGYF=  160 NGZF=  280
   support grid    NGXF=    96 NGYF=  160 NGZF=  280
   ions per type =              48  48
   NGX,Y,Z   is equivalent  to a cutoff of   8.15,  8.31,  7.69 a.u.
   NGXF,Y,Z  is equivalent  to a cutoff of  16.29, 16.63, 15.37 a.u.

 SYSTEM =  unknown system                          
 POSCAR =  Ga  N                                   

 Startparameter for this run:
   NWRITE =      2    write-flag & timer
   PREC   = normal    normal or accurate (medium, high low for compatibility)
   ISTART =      0    job   : 0-new  1-cont  2-samecut
   ICHARG =      2    charge: 1-file 2-atom 10-const
   ISPIN  =      1    spin polarized calculation?
   LNONCOLLINEAR =      F non collinear calculations
   LSORBIT =      F    spin-orbit coupling
   INIWAV =      1    electr: 0-lowe 1-rand  2-diag
   LASPH  =      F    aspherical Exc in radial PAW
   METAGGA=      F    non-selfconsistent MetaGGA calc.

 Electronic Relaxation 1
   ENCUT  =  350.0 eV  25.72 Ry    5.07 a.u.  14.94 24.40 46.20*2*pi/ulx,y,z
   ENINI  =  350.0     initial cutoff
   ENAUG  =  627.1 eV  augmentation charge cutoff
   NELM   =     60;   NELMIN=  2; NELMDL= -5     # of ELM steps 
   EDIFF  = 0.1E-03   stopping-criterion for ELM
   LREAL  =      T    real-space projection
   NLSPLINE    = F    spline interpolate recip. space projectors
   LCOMPAT=      F    compatible to vasp.4.4
   GGA_COMPAT  = T    GGA compatible to vasp.4.4-vasp.4.6
   LMAXPAW     = -100 max onsite density
   LMAXMIX     =    2 max onsite mixed and CHGCAR
   VOSKOWN=      0    Vosko Wilk Nusair interpolation
   ROPT   =   -0.00050  -0.00050
 Ionic relaxation
   EDIFFG = -.3E-01   stopping-criterion for IOM
   NSW    =   2000    number of steps for IOM
   NBLOCK =      1;   KBLOCK =   2000    inner block; outer block 
   IBRION =      2    ionic relax: 0-MD 1-quasi-New 2-CG
   NFREE  =      1    steps in history (QN), initial steepest desc. (CG)
   ISIF   =      0    stress and relaxation
   IWAVPR =     11    prediction:  0-non 1-charg 2-wave 3-comb
   ISYM   =      0    0-nonsym 1-usesym 2-fastsym
   LCORR  =      T    Harris-Foulkes like correction to forces

   POTIM  = 0.5000    time-step for ionic-motion
   TEIN   =    0.0    initial temperature
   TEBEG  =    0.0;   TEEND  =   0.0 temperature during run
   SMASS  =  -3.00    Nose mass-parameter (am)
   estimated Nose-frequenzy (Omega)   =  0.10E-29 period in steps = 0.13E+47 mass=  -0.219E-26a.u.
   SCALEE = 1.0000    scale energy and forces
   NPACO  =    256;   APACO  = 16.0  distance and # of slots for P.C.
   PSTRESS=    0.0 pullay stress

  Mass of Ions in am
   POMASS =  69.72 14.00
  Ionic Valenz
   ZVAL   =   3.00  5.00
  Atomic Wigner-Seitz radii
   RWIGS  =  -1.00 -1.00
  virtual crystal weights 
   VCA    =   1.00  1.00
   NELECT =     384.0000    total number of electrons
   NUPDOWN=      -1.0000    fix difference up-down

 DOS related values:
   EMIN   =  10.00;   EMAX   =-10.00  energy-range for DOS
   EFERMI =   0.00
   ISMEAR =     0;   SIGMA  =   0.05  broadening in eV -4-tet -1-fermi 0-gaus

 Electronic relaxation 2 (details)
   IALGO  =     38    algorithm
   LDIAG  =      T    sub-space diagonalisation (order eigenvalues)
   LSUBROT=      F    optimize rotation matrix (better conditioning)
   TURBO    =      0    0=normal 1=particle mesh
   IRESTART =      0    0=no restart 2=restart with 2 vectors
   NREBOOT  =      0    no. of reboots
   NMIN     =      0    reboot dimension
   EREF     =   0.00    reference energy to select bands
   IMIX   =      4    mixing-type and parameters
     AMIX     =   0.40;   BMIX     =  1.00
     AMIX_MAG =   1.60;   BMIX_MAG =  1.00
     AMIN     =   0.10
     WC   =   100.;   INIMIX=   1;  MIXPRE=   1;  MAXMIX= -45

 Intra band minimization:
   WEIMIN = 0.0010     energy-eigenvalue tresh-hold
   EBREAK =  0.10E-06  absolut break condition
   DEPER  =   0.30     relativ break condition  

   TIME   =   0.40     timestep for ELM

  volume/ion in A,a.u.               =      49.25       332.36
  Fermi-wavevector in a.u.,A,eV,Ry     =   0.708961  1.339742  6.838634  0.502625
  Thomas-Fermi vector in A             =   1.795416
 
 Write flags
   LWAVE        =      F    write WAVECAR
   LDOWNSAMPLE  =      F    k-point downsampling of WAVECAR
   LCHARG       =      T    write CHGCAR
   LVTOT        =      F    write LOCPOT, total local potential
   LVHAR        =      F    write LOCPOT, Hartree potential only
   LELF         =      F    write electronic localiz. function (ELF)
   LORBIT       =      0    0 simple, 1 ext, 2 COOP (PROOUT), +10 PAW based schemes


 Dipole corrections
   LMONO  =      F    monopole corrections only (constant potential shift)
   LDIPOL =      F    correct potential (dipole corrections)
   IDIPOL =      0    1-x, 2-y, 3-z, 4-all directions 
   EPSILON=  1.0000000 bulk dielectric constant

 Exchange correlation treatment:
   GGA     =    RP    GGA type
   LEXCH   =     9    internal setting for exchange type
   VOSKOWN=      0    Vosko Wilk Nusair interpolation
   LHFCALC =     F    Hartree Fock is set to
   LHFONE  =     F    Hartree Fock one center treatment
   AEXX    =    0.0000 exact exchange contribution

 Linear response parameters
   LEPSILON=     F    determine dielectric tensor
   LRPA    =     F    only Hartree local field effects (RPA)
   LNABLA  =     F    use nabla operator in PAW spheres
   LVEL    =     F    velocity operator in full k-point grid
   LINTERFAST=   F  fast interpolation
   KINTER  =     0    interpolate to denser k-point grid
   CSHIFT  =0.1000    complex shift for real part using Kramers Kronig
   OMEGAMAX=  -1.0    maximum frequency
   DEG_THRESHOLD= 0.2000000E-02 threshold for treating states as degnerate
   RTIME   =   -0.100 relaxation time in fs
  (WPLASMAI=    0.000 imaginary part of plasma frequency in eV, 0.658/RTIME)
   DFIELD  = 0.0000000 0.0000000 0.0000000 field for delta impulse in time
 
 Orbital magnetization related:
   ORBITALMAG=     F  switch on orbital magnetization
   LCHIMAG   =     F  perturbation theory with respect to B field
   DQ        =  0.001000  dq finite difference perturbation B field
   LLRAUG    =     F  two centre corrections for induced B field



--------------------------------------------------------------------------------------------------------


 conjugate gradient relaxation of ions
   using selective dynamics as specified on POSCAR
   WARNING: If single coordinates had been selected the selection of coordinates
            is made according to the corresponding   d i r e c t   coordinates!
            Don't support selection of single cartesian coordinates -- sorry ... !
 charge density and potential will be updated during run
 non-spin polarized calculation
 Variant of blocked Davidson
 Davidson routine will perform the subspace rotation
 perform sub-space diagonalisation
    after iterative eigenvector-optimisation
 modified Broyden-mixing scheme, WC =      100.0
 initial mixing is a Kerker type mixing with AMIX =  0.4000 and BMIX =      1.0000
 Hartree-type preconditioning will be used
 using additional bands            56
 real space projection scheme for non local part
 use partial core corrections
 calculate Harris-corrections to forces 
   (improved forces if not selfconsistent)
 use gradient corrections 
 use of overlap-Matrix (Vanderbilt PP)
 Gauss-broadening in eV      SIGMA  =   0.05


--------------------------------------------------------------------------------------------------------


  energy-cutoff  :      350.00
  volume of cell :     4728.13
      direct lattice vectors                 reciprocal lattice vectors
     9.796904190  0.000000000 -0.000000000     0.102073061  0.000000000 -0.000000000
    -0.000000000 15.936148090 -1.408569800    -0.000000000  0.062750421  0.000000000
     0.000000000  0.000000000 30.284250640     0.000000000  0.002918624  0.033020464

  length of vectors
     9.796904190 15.998277558 30.284250640     0.102073061  0.062750421  0.033149199


 
 k-points in units of 2pi/SCALE and weight: KPOINTS created by Atomic Simulation Env
   0.01275913  0.00000000  0.00000000       0.167
   0.03827740  0.00000000  0.00000000       0.167
   0.01275913  0.02091681  0.00000000       0.167
   0.01275913 -0.02091681  0.00000000       0.167
   0.03827740  0.02091681  0.00000000       0.167
   0.03827740 -0.02091681  0.00000000       0.167
 
 k-points in reciprocal lattice and weights: KPOINTS created by Atomic Simulation Env
   0.12500000  0.00000000  0.00000000       0.167
   0.37500000  0.00000000  0.00000000       0.167
   0.12500000  0.33333333  0.00000000       0.167
   0.12500000 -0.33333333  0.00000000       0.167
   0.37500000  0.33333333  0.00000000       0.167
   0.37500000 -0.33333333  0.00000000       0.167
 
 position of ions in fractional coordinates (direct lattice) 
   0.00000000  0.23690154  0.60937500
   0.00000000  0.20565154  0.42187500
   0.00000000  0.04940154  0.48437500
   0.00000000  0.39315154  0.54687500
   0.16666667  0.37752654  0.45312500
   0.16666667  0.22127654  0.51562500
   0.16666667  0.06502654  0.57812500
   0.16666667  0.03377654  0.39062500
   0.00000000  0.73690154  0.60937500
   0.00000000  0.70565154  0.42187500
   0.00000000  0.54940154  0.48437500
   0.00000000  0.89315154  0.54687500
   0.16666667  0.87752654  0.45312500
   0.16666667  0.72127654  0.51562500
   0.16666667  0.56502654  0.57812500
   0.16666667  0.53377654  0.39062500
   0.33333333  0.23690154  0.60937500
   0.33333333  0.20565154  0.42187500
   0.33333333  0.04940154  0.48437500
   0.33333333  0.39315154  0.54687500
   0.50000000  0.37752654  0.45312500
   0.50000000  0.22127654  0.51562500
   0.50000000  0.06502654  0.57812500
   0.50000000  0.03377654  0.39062500
   0.33333333  0.73690154  0.60937500
   0.33333333  0.70565154  0.42187500
   0.33333333  0.54940154  0.48437500
   0.33333333  0.89315154  0.54687500
   0.50000000  0.87752654  0.45312500
   0.50000000  0.72127654  0.51562500
   0.50000000  0.56502654  0.57812500
   0.50000000  0.53377654  0.39062500
   0.66666667  0.23690154  0.60937500
   0.66666667  0.20565154  0.42187500
   0.66666667  0.04940154  0.48437500
   0.66666667  0.39315154  0.54687500
   0.83333333  0.37752654  0.45312500
   0.83333333  0.22127654  0.51562500
   0.83333333  0.06502654  0.57812500
   0.83333333  0.03377654  0.39062500
   0.66666667  0.73690154  0.60937500
   0.66666667  0.70565154  0.42187500
   0.66666667  0.54940154  0.48437500
   0.66666667  0.89315154  0.54687500
   0.83333333  0.87752654  0.45312500
   0.83333333  0.72127654  0.51562500
   0.83333333  0.56502654  0.57812500
   0.83333333  0.53377654  0.39062500
   0.16666667  0.34627654  0.51562500
   0.16666667  0.19002654  0.57812500
   0.16666667  0.15877654  0.39062500
   0.16666667  0.00252654  0.45312500
   0.00000000  0.17440154  0.48437500
   0.00000000  0.01815154  0.54687500
   0.00000000  0.36190154  0.60937500
   0.00000000  0.33065154  0.42187500
   0.16666667  0.84627654  0.51562500
   0.16666667  0.69002654  0.57812500
   0.16666667  0.65877654  0.39062500
   0.16666667  0.50252654  0.45312500
   0.00000000  0.67440154  0.48437500
   0.00000000  0.51815154  0.54687500
   0.00000000  0.86190154  0.60937500
   0.00000000  0.83065154  0.42187500
   0.50000000  0.34627654  0.51562500
   0.50000000  0.19002654  0.57812500
   0.50000000  0.15877654  0.39062500
   0.50000000  0.00252654  0.45312500
   0.33333333  0.17440154  0.48437500
   0.33333333  0.01815154  0.54687500
   0.33333333  0.36190154  0.60937500
   0.33333333  0.33065154  0.42187500
   0.50000000  0.84627654  0.51562500
   0.50000000  0.69002654  0.57812500
   0.50000000  0.65877654  0.39062500
   0.50000000  0.50252654  0.45312500
   0.33333333  0.67440154  0.48437500
   0.33333333  0.51815154  0.54687500
   0.33333333  0.86190154  0.60937500
   0.33333333  0.83065154  0.42187500
   0.83333333  0.34627654  0.51562500
   0.83333333  0.19002654  0.57812500
   0.83333333  0.15877654  0.39062500
   0.83333333  0.00252654  0.45312500
   0.66666667  0.17440154  0.48437500
   0.66666667  0.01815154  0.54687500
   0.66666667  0.36190154  0.60937500
   0.66666667  0.33065154  0.42187500
   0.83333333  0.84627654  0.51562500
   0.83333333  0.69002654  0.57812500
   0.83333333  0.65877654  0.39062500
   0.83333333  0.50252654  0.45312500
   0.66666667  0.67440154  0.48437500
   0.66666667  0.51815154  0.54687500
   0.66666667  0.86190154  0.60937500
   0.66666667  0.83065154  0.42187500
 
 position of ions in cartesian coordinates  (Angst):
   0.00000000  3.77529802 18.12077288
   0.00000000  3.27729340 12.48649369
   0.00000000  0.78727026 14.59934839
   0.00000000  6.26532116 16.00791818
   1.63281740  6.01631885 13.19077859
   1.63281740  3.52629571 15.30363328
   1.63281740  1.03627257 17.41648798
   1.63281740  0.53826794 11.78220879
   0.00000000 11.74337207 17.41648798
   0.00000000 11.24536744 11.78220879
   0.00000000  8.75534430 13.89506349
   0.00000000 14.23339521 15.30363328
   1.63281740 13.98439289 12.48649369
   1.63281740 11.49436976 14.59934838
   1.63281740  9.00434662 16.71220308
   1.63281740  8.50634199 11.07792389
   3.26563470  3.77529802 18.12077288
   3.26563470  3.27729340 12.48649369
   3.26563470  0.78727026 14.59934839
   3.26563470  6.26532116 16.00791818
   4.89845209  6.01631885 13.19077859
   4.89845209  3.52629571 15.30363328
   4.89845209  1.03627257 17.41648798
   4.89845209  0.53826794 11.78220879
   3.26563470 11.74337207 17.41648798
   3.26563470 11.24536744 11.78220879
   3.26563470  8.75534430 13.89506349
   3.26563470 14.23339521 15.30363328
   4.89845209 13.98439289 12.48649369
   4.89845209 11.49436976 14.59934838
   4.89845209  9.00434662 16.71220308
   4.89845209  8.50634199 11.07792389
   6.53126949  3.77529802 18.12077288
   6.53126949  3.27729340 12.48649369
   6.53126949  0.78727026 14.59934839
   6.53126949  6.26532116 16.00791818
   8.16408679  6.01631885 13.19077859
   8.16408679  3.52629571 15.30363328
   8.16408679  1.03627257 17.41648798
   8.16408679  0.53826794 11.78220879
   6.53126949 11.74337207 17.41648798
   6.53126949 11.24536744 11.78220879
   6.53126949  8.75534430 13.89506349
   6.53126949 14.23339521 15.30363328
   8.16408679 13.98439289 12.48649369
   8.16408679 11.49436976 14.59934838
   8.16408679  9.00434662 16.71220308
   8.16408679  8.50634199 11.07792389
   1.63281740  5.51831422 15.12756206
   1.63281740  3.02829108 17.24041676
   1.63281740  2.53028645 11.60613757
   1.63281740  0.04026332 13.71899226
   0.00000000  2.77928877 14.42327716
   0.00000000  0.28926563 16.53613186
   0.00000000  5.76731654 17.94470165
   0.00000000  5.26931191 12.31042247
   1.63281740 13.48638827 14.42327716
   1.63281740 10.99636513 16.53613186
   1.63281740 10.49836050 10.90185267
   1.63281740  8.00833736 13.01470736
   0.00000000 10.74736281 13.71899226
   0.00000000  8.25733967 15.83184696
   0.00000000 13.73539058 17.24041675
   0.00000000 13.23738595 11.60613757
   4.89845209  5.51831422 15.12756206
   4.89845209  3.02829108 17.24041676
   4.89845209  2.53028645 11.60613757
   4.89845209  0.04026332 13.71899226
   3.26563470  2.77928877 14.42327716
   3.26563470  0.28926563 16.53613186
   3.26563470  5.76731654 17.94470165
   3.26563470  5.26931191 12.31042247
   4.89845209 13.48638827 14.42327716
   4.89845209 10.99636513 16.53613186
   4.89845209 10.49836050 10.90185267
   4.89845209  8.00833736 13.01470736
   3.26563470 10.74736281 13.71899226
   3.26563470  8.25733967 15.83184696
   3.26563470 13.73539058 17.24041675
   3.26563470 13.23738595 11.60613757
   8.16408679  5.51831422 15.12756206
   8.16408679  3.02829108 17.24041676
   8.16408679  2.53028645 11.60613757
   8.16408679  0.04026332 13.71899226
   6.53126949  2.77928877 14.42327716
   6.53126949  0.28926563 16.53613186
   6.53126949  5.76731654 17.94470165
   6.53126949  5.26931191 12.31042247
   8.16408679 13.48638827 14.42327716
   8.16408679 10.99636513 16.53613186
   8.16408679 10.49836050 10.90185267
   8.16408679  8.00833736 13.01470736
   6.53126949 10.74736281 13.71899226
   6.53126949  8.25733967 15.83184696
   6.53126949 13.73539058 17.24041675
   6.53126949 13.23738595 11.60613757
 


--------------------------------------------------------------------------------------------------------


 k-point   1 :   0.1250 0.0000 0.0000  plane waves:   70294
 k-point   2 :   0.3750 0.0000 0.0000  plane waves:   70378
 k-point   3 :   0.1250 0.3333 0.0000  plane waves:   70262
 k-point   4 :   0.1250-0.3333 0.0000  plane waves:   70262
 k-point   5 :   0.3750 0.3333 0.0000  plane waves:   70301
 k-point   6 :   0.3750-0.3333 0.0000  plane waves:   70301

 maximum and minimum number of plane-waves per node :     17640    17504

 maximum number of plane-waves:     70378
 maximum index in each direction: 
   IXMAX=   14   IYMAX=   24   IZMAX=   46
   IXMIN=  -15   IYMIN=  -24   IZMIN=  -46


 real space projection operators:
  total allocation   :      14889.19 KBytes
  max/ min on nodes  :       3775.50       3686.67


 parallel 3D FFT for wavefunctions:
    minimum data exchange during FFTs selected (reduces bandwidth)
 parallel 3D FFT for charge:
    minimum data exchange during FFTs selected (reduces bandwidth)


 total amount of memory used by VASP MPI-rank0   114316. kBytes
=======================================================================

   base      :      30000. kBytes
   nonlr-proj:       9288. kBytes
   fftplans  :       8715. kBytes
   grid      :      12956. kBytes
   one-center:        194. kBytes
   wavefun   :      53163. kBytes
 
     INWAV:  cpu time    0.0001: real time    0.0001
 Broyden mixing: mesh for mixing (old mesh)
   NGX = 29   NGY = 49   NGZ = 93
  (NGX  = 96   NGY  =160   NGZ  =280)
  gives a total of 132153 points

 initial charge density was supplied:
 charge density of overlapping atoms calculated
 number of electron     384.0000000 magnetization 
 keeping initial charge density in first step


--------------------------------------------------------------------------------------------------------


 Maximum index for non-local projection operator           698
 Maximum index for augmentation-charges           475 (set IRDMAX)


--------------------------------------------------------------------------------------------------------


 First call to EWALD:  gamma=   0.106
 Maximum number of real-space cells 4x 3x 2
 Maximum number of reciprocal cells 2x 3x 5

    FEWALD:  cpu time    0.0046: real time    0.0046


--------------------------------------- Iteration      1(   1)  ---------------------------------------


    POTLOK:  cpu time    0.1310: real time    0.1326
    SETDIJ:  cpu time    0.0071: real time    0.0072
     EDDAV:  cpu time   19.9532: real time   20.1104
       DOS:  cpu time    0.0018: real time    0.0018
    --------------------------------------------
      LOOP:  cpu time   20.0932: real time   20.2520

 eigenvalue-minimisations  :  3272
 total energy-change (2. order) : 0.2960026E+04  (-0.1103103E+05)
 number of electron     384.0000000 magnetization 
 augmentation part      384.0000000 magnetization 

 Free energy of the ion-electron system (eV)
  ---------------------------------------------------
  alpha Z        PSCENC =       315.80475264
  Ewald energy   TEWEN  =    108068.36112254
  -Hartree energ DENC   =   -120860.36661401
  -exchange      EXHF   =         0.00000000
  -V(xc)+E(xc)   XCENC  =       -19.68167275
  PAW double counting   =     12846.03118282   -11738.92072573
  entropy T*S    EENTRO =        -0.03732932
  eigenvalues    EBANDS =     -1146.23006337
  atomic energy  EATOM  =     15495.06517988
  Solvation  Ediel_sol  =         0.00000000
  ---------------------------------------------------
  free energy    TOTEN  =      2960.02583270 eV

  energy without entropy =     2960.06316203  energy(sigma->0) =     2960.04449736


--------------------------------------------------------------------------------------------------------




--------------------------------------- Iteration      1(   2)  ---------------------------------------


     EDDAV:  cpu time   23.6724: real time   23.8521
       DOS:  cpu time    0.0010: real time    0.0010
    --------------------------------------------
      LOOP:  cpu time   23.6734: real time   23.8531

 eigenvalue-minimisations  :  4224
 total energy-change (2. order) :-0.2794033E+04  (-0.2679017E+04)
 number of electron     384.0000000 magnetization 
 augmentation part      384.0000000 magnetization 

 Free energy of the ion-electron system (eV)
  ---------------------------------------------------
  alpha Z        PSCENC =       315.80475264
  Ewald energy   TEWEN  =    108068.36112254
  -Hartree energ DENC   =   -120860.36661401
  -exchange      EXHF   =         0.00000000
  -V(xc)+E(xc)   XCENC  =       -19.68167275
  PAW double counting   =     12846.03118282   -11738.92072573
  entropy T*S    EENTRO =        -0.01740327
  eigenvalues    EBANDS =     -3940.28295355
  atomic energy  EATOM  =     15495.06517988
  Solvation  Ediel_sol  =         0.00000000
  ---------------------------------------------------
  free energy    TOTEN  =       165.99286858 eV

  energy without entropy =      166.01027184  energy(sigma->0) =      166.00157021


--------------------------------------------------------------------------------------------------------




--------------------------------------- Iteration      1(   3)  ---------------------------------------


     EDDAV:  cpu time   22.8748: real time   23.0594
       DOS:  cpu time    0.0010: real time    0.0010
    --------------------------------------------
      LOOP:  cpu time   22.8758: real time   23.0604

 eigenvalue-minimisations  :  3896
 total energy-change (2. order) :-0.7263118E+03  (-0.7080816E+03)
 number of electron     384.0000000 magnetization 
 augmentation part      384.0000000 magnetization 

 Free energy of the ion-electron system (eV)
  ---------------------------------------------------
  alpha Z        PSCENC =       315.80475264
  Ewald energy   TEWEN  =    108068.36112254
  -Hartree energ DENC   =   -120860.36661401
  -exchange      EXHF   =         0.00000000
  -V(xc)+E(xc)   XCENC  =       -19.68167275
  PAW double counting   =     12846.03118282   -11738.92072573
  entropy T*S    EENTRO =        -0.00000094
  eigenvalues    EBANDS =     -4666.61216450
  atomic energy  EATOM  =     15495.06517988
  Solvation  Ediel_sol  =         0.00000000
  ---------------------------------------------------
  free energy    TOTEN  =      -560.31894004 eV

  energy without entropy =     -560.31893910  energy(sigma->0) =     -560.31893957


--------------------------------------------------------------------------------------------------------




--------------------------------------- Iteration      1(   4)  ---------------------------------------


     EDDAV:  cpu time   20.5184: real time   20.8282
       DOS:  cpu time    0.0009: real time    0.0009
    --------------------------------------------
      LOOP:  cpu time   20.5194: real time   20.8291

 eigenvalue-minimisations  :  3496
 total energy-change (2. order) :-0.3894960E+02  (-0.3855225E+02)
 number of electron     384.0000000 magnetization 
 augmentation part      384.0000000 magnetization 

 Free energy of the ion-electron system (eV)
  ---------------------------------------------------
  alpha Z        PSCENC =       315.80475264
  Ewald energy   TEWEN  =    108068.36112254
  -Hartree energ DENC   =   -120860.36661401
  -exchange      EXHF   =         0.00000000
  -V(xc)+E(xc)   XCENC  =       -19.68167275
  PAW double counting   =     12846.03118282   -11738.92072573
  entropy T*S    EENTRO =        -0.00000000
  eigenvalues    EBANDS =     -4705.56176460
  atomic energy  EATOM  =     15495.06517988
  Solvation  Ediel_sol  =         0.00000000
  ---------------------------------------------------
  free energy    TOTEN  =      -599.26853921 eV

  energy without entropy =     -599.26853921  energy(sigma->0) =     -599.26853921


--------------------------------------------------------------------------------------------------------




--------------------------------------- Iteration      1(   5)  ---------------------------------------


     EDDAV:  cpu time   24.5856: real time   24.7548
       DOS:  cpu time    0.0004: real time    0.0004
    CHARGE:  cpu time    0.6385: real time    0.6451
    MIXING:  cpu time    0.0027: real time    0.0027
    --------------------------------------------
      LOOP:  cpu time   25.2271: real time   25.4029

 eigenvalue-minimisations  :  4368
 total energy-change (2. order) :-0.1683571E+01  (-0.1680621E+01)
 number of electron     383.9999739 magnetization 
 augmentation part        0.3305323 magnetization 

 Broyden mixing:
  rms(total) = 0.61215E+01    rms(broyden)= 0.61184E+01
  rms(prec ) = 0.64736E+01
  weight for this iteration     100.00

 Free energy of the ion-electron system (eV)
  ---------------------------------------------------
  alpha Z        PSCENC =       315.80475264
  Ewald energy   TEWEN  =    108068.36112254
  -Hartree energ DENC   =   -120860.36661401
  -exchange      EXHF   =         0.00000000
  -V(xc)+E(xc)   XCENC  =       -19.68167275
  PAW double counting   =     12846.03118282   -11738.92072573
  entropy T*S    EENTRO =        -0.00000000
  eigenvalues    EBANDS =     -4707.24533597
  atomic energy  EATOM  =     15495.06517988
  Solvation  Ediel_sol  =         0.00000000
  ---------------------------------------------------
  free energy    TOTEN  =      -600.95211057 eV

  energy without entropy =     -600.95211057  energy(sigma->0) =     -600.95211057


--------------------------------------------------------------------------------------------------------




--------------------------------------- Iteration      1(   6)  ---------------------------------------


    POTLOK:  cpu time    0.1047: real time    0.1089
    SETDIJ:  cpu time    0.0086: real time    0.0086
     EDDAV:  cpu time   19.6601: real time   19.8483
       DOS:  cpu time    0.0009: real time    0.0009
    CHARGE:  cpu time    0.6415: real time    0.6448
    MIXING:  cpu time    0.0028: real time    0.0028
    --------------------------------------------
      LOOP:  cpu time   20.4186: real time   20.6145

 eigenvalue-minimisations  :  3312
 total energy-change (2. order) : 0.8922646E+02  (-0.5673455E+02)
 number of electron     383.9999838 magnetization 
 augmentation part      -13.4760537 magnetization 

 Broyden mixing:
  rms(total) = 0.43320E+01    rms(broyden)= 0.43221E+01
  rms(prec ) = 0.49455E+01
  weight for this iteration     100.00

 eigenvalues of (default mixing * dielectric matrix)
  average eigenvalue GAMMA=   0.6607
  0.6607

 Free energy of the ion-electron system (eV)
  ---------------------------------------------------
  alpha Z        PSCENC =       315.80475264
  Ewald energy   TEWEN  =    108068.36112254
  -Hartree energ DENC   =   -121852.27007007
  -exchange      EXHF   =         0.00000000
  -V(xc)+E(xc)   XCENC  =        42.21720170
  PAW double counting   =     19883.12933117   -18789.69138451
  entropy T*S    EENTRO =        -0.03837676
  eigenvalues    EBANDS =     -3674.30340767
  atomic energy  EATOM  =     15495.06517988
  Solvation  Ediel_sol  =         0.00000000
  ---------------------------------------------------
  free energy    TOTEN  =      -511.72565107 eV

  energy without entropy =     -511.68727431  energy(sigma->0) =     -511.70646269


--------------------------------------------------------------------------------------------------------




--------------------------------------- Iteration      1(   7)  ---------------------------------------


    POTLOK:  cpu time    0.1104: real time    0.1116
    SETDIJ:  cpu time    0.0069: real time    0.0069
     EDDAV:  cpu time   24.6233: real time   24.8061
       DOS:  cpu time    0.0009: real time    0.0009
    CHARGE:  cpu time    0.6358: real time    0.6386
    MIXING:  cpu time    0.0052: real time    0.0052
    --------------------------------------------
      LOOP:  cpu time   25.3825: real time   25.5694

 eigenvalue-minimisations  :  4352
 total energy-change (2. order) :-0.2901160E+02  (-0.1174345E+02)
 number of electron     383.9999797 magnetization 
 augmentation part      -14.2405688 magnetization 

 Broyden mixing:
  rms(total) = 0.47043E+01    rms(broyden)= 0.46931E+01
  rms(prec ) = 0.61078E+01
  weight for this iteration     100.00

 eigenvalues of (default mixing * dielectric matrix)
  average eigenvalue GAMMA=   0.5116
  0.6998  0.3234

 Free energy of the ion-electron system (eV)
  ---------------------------------------------------
  alpha Z        PSCENC =       315.80475264
  Ewald energy   TEWEN  =    108068.36112254
  -Hartree energ DENC   =   -121791.14018871
  -exchange      EXHF   =         0.00000000
  -V(xc)+E(xc)   XCENC  =        36.40665390
  PAW double counting   =     22759.77106844   -21668.19023824
  entropy T*S    EENTRO =        -0.03120497
  eigenvalues    EBANDS =     -3756.78439766
  atomic energy  EATOM  =     15495.06517988
  Solvation  Ediel_sol  =         0.00000000
  ---------------------------------------------------
  free energy    TOTEN  =      -540.73725217 eV

  energy without entropy =     -540.70604720  energy(sigma->0) =     -540.72164969


--------------------------------------------------------------------------------------------------------




--------------------------------------- Iteration      1(   8)  ---------------------------------------


    POTLOK:  cpu time    0.1089: real time    0.1111
    SETDIJ:  cpu time    0.0069: real time    0.0069
     EDDAV:  cpu time   25.7631: real time   26.0244
       DOS:  cpu time    0.0018: real time    0.0018
    CHARGE:  cpu time    0.6444: real time    0.6472
    MIXING:  cpu time    0.0030: real time    0.0030
    --------------------------------------------
      LOOP:  cpu time   26.5280: real time   26.7944

 eigenvalue-minimisations  :  4616
 total energy-change (2. order) : 0.4127047E+02  (-0.6103999E+01)
 number of electron     383.9999887 magnetization 
 augmentation part      -10.1038572 magnetization 

 Broyden mixing:
  rms(total) = 0.22756E+01    rms(broyden)= 0.22626E+01
  rms(prec ) = 0.24253E+01
  weight for this iteration     100.00

 eigenvalues of (default mixing * dielectric matrix)
  average eigenvalue GAMMA=   0.5740
  0.9918  0.3651  0.3651

 Free energy of the ion-electron system (eV)
  ---------------------------------------------------
  alpha Z        PSCENC =       315.80475264
  Ewald energy   TEWEN  =    108068.36112254
  -Hartree energ DENC   =   -121720.56168184
  -exchange      EXHF   =         0.00000000
  -V(xc)+E(xc)   XCENC  =        34.05589142
  PAW double counting   =     24233.88195813   -23143.20402930
  entropy T*S    EENTRO =        -0.01312137
  eigenvalues    EBANDS =     -3782.85685570
  atomic energy  EATOM  =     15495.06517988
  Solvation  Ediel_sol  =         0.00000000
  ---------------------------------------------------
  free energy    TOTEN  =      -499.46678360 eV

  energy without entropy =     -499.45366222  energy(sigma->0) =     -499.46022291


--------------------------------------------------------------------------------------------------------




--------------------------------------- Iteration      1(   9)  ---------------------------------------


    POTLOK:  cpu time    0.1149: real time    0.1154
    SETDIJ:  cpu time    0.0067: real time    0.0067
     EDDAV:  cpu time   22.6744: real time   22.9125
       DOS:  cpu time    0.0021: real time    0.0021
    CHARGE:  cpu time    0.6402: real time    0.6432
    MIXING:  cpu time    0.0026: real time    0.0027
    --------------------------------------------
      LOOP:  cpu time   23.4409: real time   23.6825

 eigenvalue-minimisations  :  3912
 total energy-change (2. order) : 0.9140254E+01  (-0.3378862E+01)
 number of electron     383.9999889 magnetization 
 augmentation part      -11.4764720 magnetization 

 Broyden mixing:
  rms(total) = 0.12904E+01    rms(broyden)= 0.12861E+01
  rms(prec ) = 0.13833E+01
  weight for this iteration     100.00

 eigenvalues of (default mixing * dielectric matrix)
  average eigenvalue GAMMA=   0.8403
  1.6524  1.0109  0.3490  0.3490

 Free energy of the ion-electron system (eV)
  ---------------------------------------------------
  alpha Z        PSCENC =       315.80475264
  Ewald energy   TEWEN  =    108068.36112254
  -Hartree energ DENC   =   -121784.45108433
  -exchange      EXHF   =         0.00000000
  -V(xc)+E(xc)   XCENC  =        37.44159913
  PAW double counting   =     27037.80990126   -25949.41768596
  entropy T*S    EENTRO =        -0.00747195
  eigenvalues    EBANDS =     -3710.93284321
  atomic energy  EATOM  =     15495.06517988
  Solvation  Ediel_sol  =         0.00000000
  ---------------------------------------------------
  free energy    TOTEN  =      -490.32653000 eV

  energy without entropy =     -490.31905804  energy(sigma->0) =     -490.32279402


--------------------------------------------------------------------------------------------------------




--------------------------------------- Iteration      1(  10)  ---------------------------------------


    POTLOK:  cpu time    0.1109: real time    0.1115
    SETDIJ:  cpu time    0.0076: real time    0.0077
     EDDAV:  cpu time   22.2202: real time   22.4205
       DOS:  cpu time    0.0015: real time    0.0015
    CHARGE:  cpu time    0.7453: real time    0.7478
    MIXING:  cpu time    0.0035: real time    0.0037
    --------------------------------------------
      LOOP:  cpu time   23.0890: real time   23.2927

 eigenvalue-minimisations  :  3832
 total energy-change (2. order) : 0.1920099E+01  (-0.1431045E+01)
 number of electron     383.9999872 magnetization 
 augmentation part      -12.0292516 magnetization 

 Broyden mixing:
  rms(total) = 0.62866E+00    rms(broyden)= 0.62791E+00
  rms(prec ) = 0.66599E+00
  weight for this iteration     100.00

 eigenvalues of (default mixing * dielectric matrix)
  average eigenvalue GAMMA=   0.8844
  1.9941  0.8507  0.8507  0.3632  0.3632

 Free energy of the ion-electron system (eV)
  ---------------------------------------------------
  alpha Z        PSCENC =       315.80475264
  Ewald energy   TEWEN  =    108068.36112254
  -Hartree energ DENC   =   -121874.23453456
  -exchange      EXHF   =         0.00000000
  -V(xc)+E(xc)   XCENC  =        39.70711211
  PAW double counting   =     31503.22561870   -30417.86056274
  entropy T*S    EENTRO =        -0.00609805
  eigenvalues    EBANDS =     -3618.46902140
  atomic energy  EATOM  =     15495.06517988
  Solvation  Ediel_sol  =         0.00000000
  ---------------------------------------------------
  free energy    TOTEN  =      -488.40643088 eV

  energy without entropy =     -488.40033283  energy(sigma->0) =     -488.40338186


--------------------------------------------------------------------------------------------------------




--------------------------------------- Iteration      1(  11)  ---------------------------------------


    POTLOK:  cpu time    0.1151: real time    0.1156
    SETDIJ:  cpu time    0.0070: real time    0.0070
     EDDAV:  cpu time   22.6838: real time   22.8335
       DOS:  cpu time    0.0020: real time    0.0020
    CHARGE:  cpu time    0.6398: real time    0.6469
    MIXING:  cpu time    0.0033: real time    0.0033
    --------------------------------------------
      LOOP:  cpu time   23.4511: real time   23.6085

 eigenvalue-minimisations  :  3832
 total energy-change (2. order) : 0.2578467E+00  (-0.2292557E+00)
 number of electron     383.9999880 magnetization 
 augmentation part      -12.2273856 magnetization 

 Broyden mixing:
  rms(total) = 0.47447E+00    rms(broyden)= 0.47221E+00
  rms(prec ) = 0.54166E+00
  weight for this iteration     100.00

 eigenvalues of (default mixing * dielectric matrix)
  average eigenvalue GAMMA=   0.8489
  2.0398  0.8612  0.8612  0.3545  0.3545  0.6225

 Free energy of the ion-electron system (eV)
  ---------------------------------------------------
  alpha Z        PSCENC =       315.80475264
  Ewald energy   TEWEN  =    108068.36112254
  -Hartree energ DENC   =   -121929.00397810
  -exchange      EXHF   =         0.00000000
  -V(xc)+E(xc)   XCENC  =        40.88566072
  PAW double counting   =     32944.30901636   -31859.99860660
  entropy T*S    EENTRO =        -0.01018783
  eigenvalues    EBANDS =     -3563.56154378
  atomic energy  EATOM  =     15495.06517988
  Solvation  Ediel_sol  =         0.00000000
  ---------------------------------------------------
  free energy    TOTEN  =      -488.14858418 eV

  energy without entropy =     -488.13839635  energy(sigma->0) =     -488.14349026


--------------------------------------------------------------------------------------------------------




--------------------------------------- Iteration      1(  12)  ---------------------------------------


    POTLOK:  cpu time    0.1114: real time    0.1128
    SETDIJ:  cpu time    0.0108: real time    0.0108
     EDDAV:  cpu time   22.8353: real time   23.0699
       DOS:  cpu time    0.0029: real time    0.0029
    CHARGE:  cpu time    0.6473: real time    0.6506
    MIXING:  cpu time    0.0030: real time    0.0031
    --------------------------------------------
      LOOP:  cpu time   23.6107: real time   23.8502

 eigenvalue-minimisations  :  4024
 total energy-change (2. order) : 0.2314273E+00  (-0.9387935E-01)
 number of electron     383.9999874 magnetization 
 augmentation part      -12.0907614 magnetization 

 Broyden mixing:
  rms(total) = 0.31602E+00    rms(broyden)= 0.31281E+00
  rms(prec ) = 0.34236E+00
  weight for this iteration     100.00

 eigenvalues of (default mixing * dielectric matrix)
  average eigenvalue GAMMA=   0.8765
  2.0109  1.2586  0.9059  0.9059  0.3581  0.3581  0.3375

 Free energy of the ion-electron system (eV)
  ---------------------------------------------------
  alpha Z        PSCENC =       315.80475264
  Ewald energy   TEWEN  =    108068.36112254
  -Hartree energ DENC   =   -121929.64343002
  -exchange      EXHF   =         0.00000000
  -V(xc)+E(xc)   XCENC  =        40.90857655
  PAW double counting   =     33159.81767460   -32075.66561936
  entropy T*S    EENTRO =        -0.01128105
  eigenvalues    EBANDS =     -3562.55413270
  atomic energy  EATOM  =     15495.06517988
  Solvation  Ediel_sol  =         0.00000000
  ---------------------------------------------------
  free energy    TOTEN  =      -487.91715691 eV

  energy without entropy =     -487.90587586  energy(sigma->0) =     -487.91151638


--------------------------------------------------------------------------------------------------------




--------------------------------------- Iteration      1(  13)  ---------------------------------------


    POTLOK:  cpu time    0.1083: real time    0.1088
    SETDIJ:  cpu time    0.0087: real time    0.0087
     EDDAV:  cpu time   22.4787: real time   22.7137
       DOS:  cpu time    0.0017: real time    0.0017
    CHARGE:  cpu time    0.6421: real time    0.6445
    MIXING:  cpu time    0.0036: real time    0.0036
    --------------------------------------------
      LOOP:  cpu time   23.2430: real time   23.4810

 eigenvalue-minimisations  :  3928
 total energy-change (2. order) : 0.1348950E+00  (-0.2995704E-01)
 number of electron     383.9999877 magnetization 
 augmentation part      -12.1360619 magnetization 

 Broyden mixing:
  rms(total) = 0.14691E+00    rms(broyden)= 0.14613E+00
  rms(prec ) = 0.16345E+00
  weight for this iteration     100.00

 eigenvalues of (default mixing * dielectric matrix)
  average eigenvalue GAMMA=   0.8902
  1.7706  1.7706  0.9289  0.9289  0.6559  0.3575  0.3575  0.3520

 Free energy of the ion-electron system (eV)
  ---------------------------------------------------
  alpha Z        PSCENC =       315.80475264
  Ewald energy   TEWEN  =    108068.36112254
  -Hartree energ DENC   =   -121945.68753825
  -exchange      EXHF   =         0.00000000
  -V(xc)+E(xc)   XCENC  =        40.92255692
  PAW double counting   =     33264.21193070   -32180.14326588
  entropy T*S    EENTRO =        -0.01209692
  eigenvalues    EBANDS =     -3546.30490358
  atomic energy  EATOM  =     15495.06517988
  Solvation  Ediel_sol  =         0.00000000
  ---------------------------------------------------
  free energy    TOTEN  =      -487.78226194 eV

  energy without entropy =     -487.77016502  energy(sigma->0) =     -487.77621348


--------------------------------------------------------------------------------------------------------




--------------------------------------- Iteration      1(  14)  ---------------------------------------


    POTLOK:  cpu time    0.1112: real time    0.1118
    SETDIJ:  cpu time    0.0089: real time    0.0089
     EDDAV:  cpu time   22.5299: real time   22.7207
       DOS:  cpu time    0.0008: real time    0.0008
    CHARGE:  cpu time    0.6436: real time    0.6509
    MIXING:  cpu time    0.0034: real time    0.0034
    --------------------------------------------
      LOOP:  cpu time   23.2978: real time   23.4966

 eigenvalue-minimisations  :  3992
 total energy-change (2. order) :-0.2691257E-01  (-0.1546430E-01)
 number of electron     383.9999877 magnetization 
 augmentation part      -12.1786881 magnetization 

 Broyden mixing:
  rms(total) = 0.18777E+00    rms(broyden)= 0.18648E+00
  rms(prec ) = 0.21719E+00
  weight for this iteration     100.00

 eigenvalues of (default mixing * dielectric matrix)
  average eigenvalue GAMMA=   0.8951
  2.0143  2.0143  0.9289  0.9289  0.8534  0.3575  0.3575  0.3448  0.2559

 Free energy of the ion-electron system (eV)
  ---------------------------------------------------
  alpha Z        PSCENC =       315.80475264
  Ewald energy   TEWEN  =    108068.36112254
  -Hartree energ DENC   =   -121958.10520040
  -exchange      EXHF   =         0.00000000
  -V(xc)+E(xc)   XCENC  =        40.96071820
  PAW double counting   =     33281.95428227   -32197.90778584
  entropy T*S    EENTRO =        -0.01248580
  eigenvalues    EBANDS =     -3533.92975801
  atomic energy  EATOM  =     15495.06517988
  Solvation  Ediel_sol  =         0.00000000
  ---------------------------------------------------
  free energy    TOTEN  =      -487.80917451 eV

  energy without entropy =     -487.79668871  energy(sigma->0) =     -487.80293161


--------------------------------------------------------------------------------------------------------




--------------------------------------- Iteration      1(  15)  ---------------------------------------


    POTLOK:  cpu time    0.1123: real time    0.1128
    SETDIJ:  cpu time    0.0077: real time    0.0078
     EDDAV:  cpu time   23.3767: real time   23.6651
       DOS:  cpu time    0.0012: real time    0.0012
    CHARGE:  cpu time    0.6329: real time    0.6434
    MIXING:  cpu time    0.0037: real time    0.0037
    --------------------------------------------
      LOOP:  cpu time   24.1345: real time   24.4339

 eigenvalue-minimisations  :  4088
 total energy-change (2. order) : 0.5320336E-01  (-0.7178359E-02)
 number of electron     383.9999876 magnetization 
 augmentation part      -12.1882047 magnetization 

 Broyden mixing:
  rms(total) = 0.57042E-01    rms(broyden)= 0.55250E-01
  rms(prec ) = 0.63408E-01
  weight for this iteration     100.00

 eigenvalues of (default mixing * dielectric matrix)
  average eigenvalue GAMMA=   0.9165
  2.1752  2.1752  0.9325  0.9325  0.8227  0.8227  0.3576  0.3576  0.3495  0.2395

 Free energy of the ion-electron system (eV)
  ---------------------------------------------------
  alpha Z        PSCENC =       315.80475264
  Ewald energy   TEWEN  =    108068.36112254
  -Hartree energ DENC   =   -121970.01719947
  -exchange      EXHF   =         0.00000000
  -V(xc)+E(xc)   XCENC  =        41.00209244
  PAW double counting   =     33292.44897270   -32208.41782815
  entropy T*S    EENTRO =        -0.01232247
  eigenvalues    EBANDS =     -3521.99074127
  atomic energy  EATOM  =     15495.06517988
  Solvation  Ediel_sol  =         0.00000000
  ---------------------------------------------------
  free energy    TOTEN  =      -487.75597115 eV

  energy without entropy =     -487.74364868  energy(sigma->0) =     -487.74980992


--------------------------------------------------------------------------------------------------------




--------------------------------------- Iteration      1(  16)  ---------------------------------------


    POTLOK:  cpu time    0.1116: real time    0.1123
    SETDIJ:  cpu time    0.0071: real time    0.0072
     EDDAV:  cpu time   22.2553: real time   22.4897
       DOS:  cpu time    0.0021: real time    0.0021
    CHARGE:  cpu time    0.6286: real time    0.6313
    MIXING:  cpu time    0.0048: real time    0.0049
    --------------------------------------------
      LOOP:  cpu time   23.0095: real time   23.2475

 eigenvalue-minimisations  :  3872
 total energy-change (2. order) :-0.5635608E-02  (-0.2649675E-02)
 number of electron     383.9999876 magnetization 
 augmentation part      -12.1991080 magnetization 

 Broyden mixing:
  rms(total) = 0.52748E-01    rms(broyden)= 0.52422E-01
  rms(prec ) = 0.59659E-01
  weight for this iteration     100.00

 eigenvalues of (default mixing * dielectric matrix)
  average eigenvalue GAMMA=   0.8929
  2.2384  2.2384  0.9431  0.9431  0.8743  0.8743  0.3574  0.3574  0.4091  0.3493
  0.2370

 Free energy of the ion-electron system (eV)
  ---------------------------------------------------
[...]
   -.751E-03 0.188E+02 0.290E+03   -.916E-06 -.185E+02 -.292E+03   0.442E-04 0.103E+00 -.288E+00   0.640E-03 0.392E-02 0.235E-01
   0.141E-02 0.126E+02 0.563E+02   -.114E-02 -.119E+02 -.581E+02   -.385E-04 -.491E+00 0.107E+01   0.191E-03 0.670E-02 0.322E-01
   -.736E-03 -.274E+02 -.186E+03   0.438E-04 0.264E+02 0.187E+03   0.170E-05 0.946E+00 -.102E+01   0.633E-03 -.372E-02 0.522E-01
   -.325E-02 0.805E+01 0.191E+03   0.566E-02 -.960E+01 -.193E+03   -.818E-04 0.417E+00 0.906E-01   -.164E-02 -.231E-03 0.340E-01
   -.740E-02 0.500E+00 -.700E+02   0.755E-02 0.343E+00 0.671E+02   0.189E-03 -.540E+00 0.221E+01   -.357E-03 0.105E-01 0.369E-01
   -.238E-01 -.103E+02 -.307E+03   0.215E-01 0.114E+02 0.304E+03   0.552E-02 -.105E+01 0.320E+01   0.297E-04 0.109E-02 0.258E-01
   0.280E-03 0.820E+02 0.406E+03   0.150E-03 -.775E+02 -.404E+03   -.129E-03 -.289E+01 -.276E+01   -.126E-03 0.309E-02 0.113E-01
   0.568E-02 -.115E+02 -.383E+03   -.550E-02 0.149E+02 0.380E+03   -.144E-02 -.348E+01 0.238E+01   0.414E-04 0.217E-01 0.186E-01
   -.270E-02 0.188E+02 0.290E+03   0.117E-02 -.185E+02 -.292E+03   0.998E-04 0.103E+00 -.288E+00   0.121E-02 0.318E-03 0.253E-01
   -.778E-02 0.126E+02 0.562E+02   0.741E-02 -.119E+02 -.581E+02   0.136E-03 -.493E+00 0.108E+01   0.197E-04 -.187E-02 0.367E-01
   -.485E-02 -.274E+02 -.186E+03   0.379E-02 0.264E+02 0.187E+03   0.388E-03 0.976E+00 -.100E+01   0.320E-03 0.219E-03 0.483E-01
   -.108E-02 0.805E+01 0.191E+03   0.518E-03 -.960E+01 -.193E+03   0.387E-04 0.417E+00 0.909E-01   0.426E-03 0.855E-02 0.333E-01
   -.139E-02 0.532E+00 -.700E+02   0.159E-02 0.315E+00 0.671E+02   0.107E-03 -.541E+00 0.221E+01   -.709E-04 0.582E-02 0.389E-01
   -.980E-03 -.103E+02 -.307E+03   0.671E-03 0.114E+02 0.304E+03   0.152E-03 -.105E+01 0.320E+01   -.201E-03 -.737E-02 0.281E-01
   -.308E-03 0.821E+02 0.406E+03   0.209E-03 -.775E+02 -.404E+03   0.653E-04 -.289E+01 -.276E+01   -.631E-04 -.553E-02 0.132E-01
   0.164E-03 -.115E+02 -.383E+03   -.179E-06 0.149E+02 0.380E+03   0.185E-02 -.349E+01 0.238E+01   -.584E-03 0.303E-01 0.166E-01
   0.910E-03 0.188E+02 0.290E+03   0.907E-03 -.185E+02 -.292E+03   -.127E-03 0.103E+00 -.288E+00   -.148E-02 0.234E-02 0.237E-01
   -.167E-03 0.125E+02 0.563E+02   -.623E-04 -.119E+02 -.581E+02   -.974E-04 -.491E+00 0.107E+01   -.166E-03 0.605E-02 0.323E-01
   0.562E-02 -.274E+02 -.186E+03   -.382E-02 0.264E+02 0.187E+03   -.212E-02 0.945E+00 -.991E+00   -.846E-03 -.350E-02 0.528E-01
   0.142E-02 0.805E+01 0.191E+03   0.255E-04 -.959E+01 -.193E+03   -.586E-04 0.417E+00 0.909E-01   -.112E-02 0.138E-02 0.348E-01
   -.762E-03 0.490E+00 -.700E+02   0.728E-03 0.352E+00 0.671E+02   0.287E-04 -.540E+00 0.221E+01   -.465E-03 0.977E-02 0.374E-01
   -.535E-02 -.103E+02 -.307E+03   0.354E-02 0.114E+02 0.304E+03   0.980E-03 -.106E+01 0.320E+01   -.112E-03 0.726E-03 0.258E-01
   0.276E-03 0.820E+02 0.406E+03   0.842E-04 -.775E+02 -.404E+03   -.660E-04 -.289E+01 -.276E+01   -.228E-03 0.181E-02 0.115E-01
   0.561E-02 -.178E+02 -.941E+02   -.616E-02 0.196E+02 0.920E+02   0.173E-02 -.200E+01 0.284E+01   -.144E-02 0.870E-02 0.765E-01
   0.103E-01 -.168E+02 -.529E+03   -.104E-01 0.186E+02 0.530E+03   -.148E-02 -.183E+01 -.734E+00   -.372E-04 0.146E-01 0.414E-01
   0.295E-02 0.573E+02 0.647E+03   -.148E-02 -.515E+02 -.662E+03   -.167E-03 -.690E+01 0.148E+02   -.149E-02 0.218E-02 0.165E-01
   0.111E-01 0.393E+02 0.314E+03   -.112E-01 -.402E+02 -.316E+03   -.115E-02 0.766E+00 0.305E+01   0.848E-03 -.389E-02 0.587E-01
   0.606E-02 0.142E+02 0.912E+02   -.529E-02 -.135E+02 -.950E+02   -.432E-04 -.108E+01 0.561E+01   -.795E-03 0.296E-02 0.638E-01
   0.142E-01 -.281E+02 -.330E+03   -.152E-01 0.231E+02 0.328E+03   0.152E-03 0.504E+01 0.196E+01   -.420E-03 -.151E-01 0.621E-01
   0.193E-01 -.104E+03 -.655E+03   -.151E-01 0.119E+03 0.668E+03   -.301E-02 -.157E+02 -.136E+02   -.155E-02 -.943E-03 0.232E-01
   0.213E-02 0.133E+02 0.526E+03   -.773E-03 -.110E+02 -.538E+03   0.118E-03 -.204E+01 0.129E+02   -.153E-02 0.106E-01 0.361E-01
   0.288E-01 -.178E+02 -.941E+02   -.343E-01 0.196E+02 0.920E+02   0.147E-02 -.199E+01 0.284E+01   0.212E-02 0.506E-02 0.777E-01
   -.200E-01 -.168E+02 -.529E+03   0.382E-01 0.186E+02 0.530E+03   -.186E-01 -.183E+01 -.734E+00   0.684E-03 0.286E-01 0.380E-01
   -.914E-03 0.573E+02 0.647E+03   -.851E-03 -.515E+02 -.662E+03   -.693E-04 -.690E+01 0.148E+02   0.190E-02 0.665E-02 0.187E-01
   0.821E-03 0.393E+02 0.314E+03   -.392E-03 -.402E+02 -.316E+03   0.291E-04 0.764E+00 0.304E+01   -.405E-03 0.133E-01 0.501E-01
   0.152E-02 0.141E+02 0.912E+02   -.201E-02 -.134E+02 -.950E+02   -.122E-03 -.108E+01 0.561E+01   0.569E-03 0.103E-01 0.579E-01
   -.119E-01 -.281E+02 -.330E+03   0.179E-01 0.231E+02 0.328E+03   -.249E-02 0.504E+01 0.195E+01   -.561E-03 -.222E-02 0.557E-01
   -.718E-02 -.104E+03 -.655E+03   0.468E-02 0.119E+03 0.668E+03   0.227E-02 -.157E+02 -.136E+02   -.134E-03 -.221E-02 0.200E-01
   0.205E-02 0.133E+02 0.526E+03   -.283E-02 -.110E+02 -.538E+03   -.725E-03 -.204E+01 0.129E+02   0.147E-02 0.458E-03 0.399E-01
   0.145E-02 -.178E+02 -.941E+02   -.442E-02 0.196E+02 0.920E+02   0.413E-03 -.200E+01 0.284E+01   0.169E-02 0.913E-02 0.776E-01
   -.163E-01 -.168E+02 -.529E+03   0.185E-01 0.186E+02 0.530E+03   -.596E-03 -.183E+01 -.735E+00   0.578E-03 0.151E-01 0.416E-01
   -.237E-02 0.573E+02 0.647E+03   0.114E-02 -.515E+02 -.662E+03   0.145E-03 -.690E+01 0.148E+02   0.123E-02 0.177E-02 0.165E-01
   -.104E-01 0.393E+02 0.314E+03   0.100E-01 -.402E+02 -.316E+03   0.960E-03 0.766E+00 0.305E+01   -.290E-03 -.469E-02 0.588E-01
   0.140E-02 0.142E+02 0.912E+02   -.121E-02 -.135E+02 -.950E+02   -.215E-03 -.108E+01 0.561E+01   -.384E-04 0.141E-02 0.651E-01
   0.218E-02 -.281E+02 -.330E+03   -.237E-02 0.231E+02 0.328E+03   -.138E-02 0.504E+01 0.195E+01   0.538E-03 -.168E-01 0.625E-01
   -.174E-01 -.104E+03 -.655E+03   0.134E-01 0.119E+03 0.668E+03   0.274E-02 -.157E+02 -.136E+02   0.142E-02 -.856E-03 0.236E-01
   0.609E-03 0.133E+02 0.526E+03   -.179E-03 -.110E+02 -.538E+03   -.564E-04 -.204E+01 0.129E+02   -.371E-03 0.110E-01 0.376E-01
   -.335E-01 -.178E+02 -.941E+02   0.359E-01 0.196E+02 0.920E+02   0.134E-03 -.199E+01 0.284E+01   -.616E-03 0.522E-02 0.780E-01
   0.117E-01 -.168E+02 -.529E+03   -.181E-01 0.186E+02 0.530E+03   0.692E-02 -.183E+01 -.733E+00   -.191E-03 0.291E-01 0.380E-01
   0.272E-03 0.573E+02 0.647E+03   0.775E-03 -.515E+02 -.662E+03   -.100E-04 -.690E+01 0.148E+02   -.111E-02 0.707E-02 0.189E-01
   -.246E-03 0.393E+02 0.314E+03   -.631E-04 -.402E+02 -.316E+03   -.369E-03 0.764E+00 0.304E+01   0.535E-03 0.138E-01 0.500E-01
   -.127E-02 0.141E+02 0.912E+02   0.639E-03 -.134E+02 -.950E+02   0.817E-04 -.108E+01 0.561E+01   0.561E-03 0.121E-01 0.564E-01
   -.129E-02 -.281E+02 -.330E+03   0.308E-02 0.231E+02 0.328E+03   -.373E-02 0.505E+01 0.195E+01   0.621E-03 -.163E-02 0.561E-01
   0.424E-02 -.104E+03 -.655E+03   -.789E-02 0.119E+03 0.668E+03   0.195E-02 -.157E+02 -.135E+02   0.168E-02 -.285E-02 0.200E-01
   -.988E-03 0.133E+02 0.526E+03   -.793E-04 -.110E+02 -.538E+03   0.593E-04 -.204E+01 0.129E+02   0.105E-02 0.795E-04 0.381E-01
   -.791E-02 -.178E+02 -.941E+02   0.120E-01 0.196E+02 0.920E+02   -.238E-02 -.200E+01 0.284E+01   -.316E-03 0.871E-02 0.762E-01
   0.581E-02 -.168E+02 -.529E+03   -.747E-02 0.186E+02 0.530E+03   0.170E-02 -.183E+01 -.735E+00   -.537E-03 0.153E-01 0.411E-01
   -.584E-03 0.573E+02 0.647E+03   0.339E-03 -.515E+02 -.662E+03   0.261E-04 -.690E+01 0.148E+02   0.267E-03 0.296E-02 0.167E-01
   -.822E-03 0.393E+02 0.314E+03   0.126E-02 -.402E+02 -.316E+03   0.216E-03 0.766E+00 0.305E+01   -.557E-03 -.237E-02 0.584E-01
   -.750E-02 0.142E+02 0.912E+02   0.653E-02 -.135E+02 -.950E+02   0.274E-03 -.108E+01 0.561E+01   0.832E-03 0.258E-02 0.643E-01
   -.166E-01 -.281E+02 -.330E+03   0.181E-01 0.231E+02 0.328E+03   0.967E-03 0.504E+01 0.195E+01   -.150E-03 -.164E-01 0.627E-01
   -.118E-02 -.104E+03 -.655E+03   0.351E-03 0.119E+03 0.668E+03   0.776E-03 -.157E+02 -.136E+02   0.138E-03 -.113E-02 0.233E-01
   -.272E-02 0.133E+02 0.526E+03   0.943E-03 -.110E+02 -.538E+03   -.748E-04 -.204E+01 0.129E+02   0.190E-02 0.108E-01 0.366E-01
   0.466E-02 -.178E+02 -.941E+02   -.188E-02 0.196E+02 0.920E+02   -.143E-02 -.199E+01 0.284E+01   -.149E-02 0.556E-02 0.792E-01
   0.386E-02 -.168E+02 -.529E+03   -.113E-01 0.186E+02 0.530E+03   0.823E-02 -.183E+01 -.732E+00   -.508E-03 0.282E-01 0.381E-01
   0.630E-03 0.573E+02 0.647E+03   0.768E-04 -.515E+02 -.662E+03   0.915E-04 -.690E+01 0.148E+02   -.797E-03 0.569E-02 0.185E-01
   -.794E-03 0.393E+02 0.314E+03   0.618E-03 -.402E+02 -.316E+03   0.463E-03 0.765E+00 0.304E+01   -.162E-03 0.119E-01 0.506E-01
   -.338E-03 0.141E+02 0.912E+02   0.140E-02 -.134E+02 -.950E+02   0.898E-04 -.108E+01 0.561E+01   -.112E-02 0.110E-01 0.575E-01
   0.185E-01 -.281E+02 -.330E+03   -.286E-01 0.231E+02 0.328E+03   0.718E-02 0.505E+01 0.195E+01   0.143E-05 -.296E-02 0.564E-01
   0.470E-02 -.104E+03 -.655E+03   0.162E-03 0.119E+03 0.668E+03   -.303E-02 -.157E+02 -.136E+02   -.151E-02 -.215E-02 0.200E-01
   -.107E-02 0.133E+02 0.526E+03   0.291E-02 -.110E+02 -.538E+03   0.670E-03 -.204E+01 0.129E+02   -.253E-02 0.392E-03 0.394E-01
 -----------------------------------------------------------------------------------------------
   0.125E-02 0.184E+03 -.194E+03   -.139E-12 0.146E-12 -.125E-11   0.217E-02 -.184E+03 0.191E+03   -.734E-05 0.444E+00 0.364E+01
 
 
 POSITION                                       TOTAL-FORCE (eV/Angst)
 -----------------------------------------------------------------------------------
      0.00006      3.99602     17.95540         0.000917     -0.002186     -0.003226
      0.00000      3.27729     12.48649         0.000156      0.393761     -2.044506
      0.00000      0.78727     14.59935         0.000084      0.131498     -0.792078
      0.00011      6.17023     16.10014        -0.000611      0.003135     -0.003908
      1.63282      6.01632     13.19078         0.000467     -1.131921     -1.547031
      1.63282      3.52630     15.30363         0.000354      0.308450     -0.675385
      1.63283      1.04815     17.25101         0.002076      0.004677      0.001304
      1.63282      0.53827     11.78221         0.000262      1.663089      0.150051
      0.00000     11.96265     17.25100        -0.001228      0.001732     -0.000940
      0.00000     11.24537     11.78221        -0.000172      0.393619     -2.043499
      0.00000      8.75534     13.89506         0.000074      0.132165     -0.793634
     -0.00011     14.13853     15.39621         0.003296     -0.016595     -0.001740
      1.63282     13.98439     12.48649        -0.000989     -1.131141     -1.545320
      1.63282     11.49437     14.59935         0.000593      0.309789     -0.675290
      1.63299      9.01605     16.54656        -0.000738      0.004274      0.000954
      1.63282      8.50634     11.07792        -0.000272      1.662957      0.151315
      3.26556      3.99613     17.95544         0.000259      0.000345     -0.002974
      3.26563      3.27729     12.48649        -0.000011      0.394295     -2.043980
      3.26563      0.78727     14.59935         0.000081      0.132673     -0.793376
      3.26558      6.17002     16.10007         0.000780      0.006835     -0.005372
      4.89845      6.01632     13.19078        -0.000437     -1.131796     -1.547022
      4.89845      3.52630     15.30363        -0.000623      0.308421     -0.675370
      4.89842      1.04831     17.25103        -0.001729      0.005223      0.001625
      4.89845      0.53827     11.78221        -0.000234      1.663050      0.150151
      3.26579     11.96479     17.25090        -0.000533     -0.002276     -0.000755
      3.26563     11.24537     11.78221        -0.000103      0.392717     -2.043108
      3.26563      8.75534     13.89506         0.000380      0.132597     -0.793658
      3.26564     14.13873     15.39578        -0.000093     -0.024705     -0.013232
      4.89845     13.98439     12.48649         0.000649     -1.130931     -1.545462
      4.89845     11.49437     14.59935        -0.000050      0.309453     -0.675139
      4.89829      9.01620     16.54676         0.003192      0.004177      0.000673
      4.89845      8.50634     11.07792         0.000140      1.662982      0.151645
      6.53131      3.99625     17.95533        -0.001256     -0.004226     -0.002695
      6.53127      3.27729     12.48649        -0.000251      0.393903     -2.044351
      6.53127      0.78727     14.59935        -0.000247      0.131957     -0.792382
      6.53124      6.16987     16.10007        -0.000390      0.007598     -0.005180
      8.16409      6.01632     13.19078        -0.000134     -1.131642     -1.546889
      8.16409      3.52630     15.30363         0.000201      0.308760     -0.675410
      8.16412      1.04830     17.25110        -0.000393      0.005086      0.001480
      8.16409      0.53827     11.78221        -0.000133      1.662972      0.149925
      6.53129     11.96344     17.25122         0.001390     -0.010740     -0.004593
      6.53127     11.24537     11.78221         0.000173      0.393288     -2.043254
      6.53127      8.75534     13.89506        -0.000528      0.132238     -0.793130
      6.53137     14.13858     15.39612        -0.001199     -0.028472      0.001197
      8.16409     13.98439     12.48649         0.000233     -1.131424     -1.545798
      8.16409     11.49437     14.59935        -0.000506      0.308651     -0.675116
      8.16401      9.01565     16.54642        -0.000970      0.000098      0.001140
      8.16409      8.50634     11.07792         0.000031      1.662936      0.151207
      1.63282      5.51831     15.12756        -0.000296     -0.151807      0.810521
      1.63292      2.96818     17.45509        -0.001653     -0.001843      0.002153
      1.63282      2.53029     11.60614        -0.000233     -1.085331      0.356015
      1.63282      0.04026     13.71899        -0.000440     -0.071039      0.776767
      0.00000      2.77929     14.42328        -0.000101     -0.366154      1.827203
      0.00002      0.24016     16.60862        -0.001368      0.015775     -0.003216
      0.00031      5.85431     18.03184        -0.000316      0.015589      0.007025
      0.00000      5.26931     12.31042        -0.000095      0.284298      1.134257
      1.63282     13.48639     14.42328        -0.001891     -0.149063      0.813195
      1.63325     10.93614     16.75076         0.000179     -0.002723      0.002037
      1.63282     10.49836     10.90185         0.000034     -1.085196      0.354649
      1.63282      8.00834     13.01471         0.000017     -0.071156      0.775659
      0.00000     10.74736     13.71899        -0.000074     -0.365841      1.826776
      0.00004      8.20819     15.90384         0.002844      0.014662     -0.001264
     -0.00036     13.82113     17.32781        -0.000411      0.017023      0.006799
      0.00000     13.23739     11.60614        -0.000062      0.284079      1.133984
      4.89845      5.51831     15.12756        -0.000901     -0.152573      0.810734
      4.89832      2.96829     17.45508         0.002182      0.000013      0.002684
      4.89845      2.53029     11.60614         0.000114     -1.085317      0.355971
      4.89845      0.04026     13.71899         0.000276     -0.071085      0.776575
      3.26563      2.77929     14.42328        -0.000107     -0.365710      1.826316
      3.26570      0.24033     16.60813        -0.001070      0.017373     -0.001378
      3.26535      5.85456     18.03170         0.000154      0.012810      0.008909
      3.26563      5.26931     12.31042        -0.000033      0.284342      1.134338
      4.89845     13.48639     14.42328         0.001905     -0.149131      0.813292
      4.89826     10.93626     16.75085         0.000356     -0.001251      0.002278
      4.89845     10.49836     10.90185        -0.000108     -1.085221      0.354448
      4.89845      8.00834     13.01471        -0.000178     -0.071257      0.775072
      3.26563     10.74736     13.71899        -0.000022     -0.365683      1.826003
      3.26575      8.20840     15.90382        -0.001356      0.009757     -0.001852
      3.26559     13.82310     17.32668        -0.000050      0.015218      0.020043
      3.26563     13.23739     11.60614         0.000009      0.284270      1.133685
      8.16409      5.51831     15.12756         0.001320     -0.151732      0.811629
      8.16413      2.96828     17.45522        -0.000535     -0.001745      0.001617
      8.16409      2.53029     11.60614         0.000012     -1.085283      0.355929
      8.16409      0.04026     13.71899         0.000062     -0.070953      0.777273
      6.53127      2.77929     14.42328         0.000101     -0.365953      1.826958
      6.53120      0.24044     16.60852         0.002274      0.012798     -0.002470
      6.53124      5.85447     18.03175         0.000048      0.016611      0.008268
      6.53127      5.26931     12.31042         0.000018      0.284290      1.134315
      8.16409     13.48639     14.42328        -0.000172     -0.149173      0.813936
      8.16393     10.93538     16.75085         0.000225      0.002300      0.002163
      8.16409     10.49836     10.90185        -0.000034     -1.085184      0.354791
      8.16409      8.00834     13.01471         0.000089     -0.071190      0.775604
      6.53127     10.74736     13.71899        -0.000003     -0.365590      1.826321
      6.53116      8.20823     15.90375        -0.002903      0.012021     -0.000449
      6.53168     13.82153     17.32807         0.000290      0.025451      0.002717
      6.53127     13.23739     11.60614        -0.000055      0.284152      1.133857
 -----------------------------------------------------------------------------------
    total drift:                                0.003407      0.311891      0.678228


--------------------------------------------------------------------------------------------------------



  FREE ENERGIE OF THE ION-ELECTRON SYSTEM (eV)
  ---------------------------------------------------
  free  energy   TOTEN  =      -493.14394052 eV

  energy  without entropy=     -493.11952731  energy(sigma->0) =     -493.13173391
 
 d Force = 0.8682959E-05[ 0.435E-05, 0.130E-04]  d Energy = 0.7309907E-05 0.137E-05
 d Force =-0.4574291E+00[-0.457E+00,-0.457E+00]  d Ewald  =-0.4574291E+00 0.959E-09


--------------------------------------------------------------------------------------------------------


    POTLOK:  cpu time    0.1225: real time    0.1231


--------------------------------------------------------------------------------------------------------




--------------------------------------------------------------------------------------------------------


  
 reached required accuracy - stopping structural energy minimisation
     LOOP+:  cpu time   35.0321: real time   35.3717
    4ORBIT:  cpu time    0.0000: real time    0.0000

 total amount of memory used by VASP MPI-rank0   114316. kBytes
=======================================================================

   base      :      30000. kBytes
   nonlr-proj:       9288. kBytes
   fftplans  :       8715. kBytes
   grid      :      12956. kBytes
   one-center:        194. kBytes
   wavefun   :      53163. kBytes
 
  
  
 General timing and accounting informations for this job:
 ========================================================
  
                  Total CPU time used (sec):     4417.407
                            User time (sec):     4388.010
                          System time (sec):       29.397
                         Elapsed time (sec):     4462.282
  
                   Maximum memory used (kb):      165128.
                   Average memory used (kb):           0.
  
                          Minor page faults:      3610825
                          Major page faults:       471860
                 Voluntary context switches:        20688
