<?xml version="1.0" encoding="ISO-8859-1"?>
<modeling>
 <generator>
  <i name="program" type="string">vasp </i>
  <i name="version" type="string">6.1.2  </i>
  <i name="subversion" type="string">22Jul20 (build Jun  1 2021 15:15:33) complex                          parallel </i>
  <i name="platform" type="string">LinuxPGI </i>
  <i name="date" type="string">2024 07 01 </i>
  <i name="time" type="string">01:39:41 </i>
 </generator>
 <incar>
  <i type="int" name="IBRION">     2</i>
  <i name="EDIFFG">     -0.03000000</i>
  <i type="int" name="NSW">  2000</i>
  <i type="int" name="ISIF">     0</i>
  <i type="int" name="ISYM">     0</i>
  <i name="SYMPREC">      0.00000000</i>
  <i name="ENCUT">    350.00000000</i>
  <i type="string" name="LREAL"> Auto</i>
  <i type="int" name="ISMEAR">     0</i>
  <i name="SIGMA">      0.05000000</i>
  <i type="logical" name="LWAVE"> F  </i>
  <i type="int" name="NCORE">     4</i>
  <i type="logical" name="LAECHG"> T  </i>
  <i type="string" name="GGA"> RP</i>
 </incar>
 <structure name="primitive_cell" >
  <crystal>
   <varray name="basis" >
    <v>       9.79690419       0.00000000      -0.00000000 </v>
    <v>      -0.00000000      15.93614809      -1.40856980 </v>
    <v>       0.00000000       0.00000000      30.28425064 </v>
   </varray>
   <i name="volume">   4728.12608715 </i>
   <varray name="rec_basis" >
    <v>       0.10207306       0.00000000      -0.00000000 </v>
    <v>      -0.00000000       0.06275042       0.00000000 </v>
    <v>       0.00000000       0.00291862       0.03302046 </v>
   </varray>
  </crystal>
  <varray name="positions" >
   <v>       0.00000000       0.23690154       0.60937500 </v>
   <v>       0.00000000       0.20565154       0.42187500 </v>
   <v>       0.00000000       0.04940154       0.48437500 </v>
   <v>       0.00000000       0.39315154       0.54687500 </v>
   <v>       0.16666667       0.37752654       0.45312500 </v>
   <v>       0.16666667       0.22127654       0.51562500 </v>
   <v>       0.16666667       0.06502654       0.57812500 </v>
   <v>       0.16666667       0.03377654       0.39062500 </v>
   <v>       0.00000000       0.73690154       0.60937500 </v>
   <v>       0.00000000       0.70565154       0.42187500 </v>
   <v>       0.00000000       0.54940154       0.48437500 </v>
   <v>       0.00000000       0.89315154       0.54687500 </v>
   <v>       0.16666667       0.87752654       0.45312500 </v>
   <v>       0.16666667       0.72127654       0.51562500 </v>
   <v>       0.16666667       0.56502654       0.57812500 </v>
   <v>       0.16666667       0.53377654       0.39062500 </v>
   <v>       0.33333333       0.23690154       0.60937500 </v>
   <v>       0.33333333       0.20565154       0.42187500 </v>
   <v>       0.33333333       0.04940154       0.48437500 </v>
   <v>       0.33333333       0.39315154       0.54687500 </v>
   <v>       0.50000000       0.37752654       0.45312500 </v>
   <v>       0.50000000       0.22127654       0.51562500 </v>
   <v>       0.50000000       0.06502654       0.57812500 </v>
   <v>       0.50000000       0.03377654       0.39062500 </v>
   <v>       0.33333333       0.73690154       0.60937500 </v>
   <v>       0.33333333       0.70565154       0.42187500 </v>
   <v>       0.33333333       0.54940154       0.48437500 </v>
   <v>       0.33333333       0.89315154       0.54687500 </v>
   <v>       0.50000000       0.87752654       0.45312500 </v>
   <v>       0.50000000       0.72127654       0.51562500 </v>
   <v>       0.50000000       0.56502654       0.57812500 </v>
   <v>       0.50000000       0.53377654       0.39062500 </v>
   <v>       0.66666667       0.23690154       0.60937500 </v>
   <v>       0.66666667       0.20565154       0.42187500 </v>
   <v>       0.66666667       0.04940154       0.48437500 </v>
   <v>       0.66666667       0.39315154       0.54687500 </v>
   <v>       0.83333333       0.37752654       0.45312500 </v>
   <v>       0.83333333       0.22127654       0.51562500 </v>
   <v>       0.83333333       0.06502654       0.57812500 </v>
   <v>       0.83333333       0.03377654       0.39062500 </v>
   <v>       0.66666667       0.73690154       0.60937500 </v>
   <v>       0.66666667       0.70565154       0.42187500 </v>
   <v>       0.66666667       0.54940154       0.48437500 </v>
   <v>       0.66666667       0.89315154       0.54687500 </v>
   <v>       0.83333333       0.87752654       0.45312500 </v>
   <v>       0.83333333       0.72127654       0.51562500 </v>
   <v>       0.83333333       0.56502654       0.57812500 </v>
   <v>       0.83333333       0.53377654       0.39062500 </v>
   <v>       0.16666667       0.34627654       0.51562500 </v>
   <v>       0.16666667       0.19002654       0.57812500 </v>
   <v>       0.16666667       0.15877654       0.39062500 </v>
   <v>       0.16666667       0.00252654       0.45312500 </v>
   <v>       0.00000000       0.17440154       0.48437500 </v>
   <v>       0.00000000       0.01815154       0.54687500 </v>
   <v>       0.00000000       0.36190154       0.60937500 </v>
   <v>       0.00000000       0.33065154       0.42187500 </v>
   <v>       0.16666667       0.84627654       0.51562500 </v>
   <v>       0.16666667       0.69002654       0.57812500 </v>
   <v>       0.16666667       0.65877654       0.39062500 </v>
   <v>       0.16666667       0.50252654       0.45312500 </v>
   <v>       0.00000000       0.67440154       0.48437500 </v>
   <v>       0.00000000       0.51815154       0.54687500 </v>
   <v>       0.00000000       0.86190154       0.60937500 </v>
   <v>       0.00000000       0.83065154       0.42187500 </v>
   <v>       0.50000000       0.34627654       0.51562500 </v>
   <v>       0.50000000       0.19002654       0.57812500 </v>
   <v>       0.50000000       0.15877654       0.39062500 </v>
   <v>       0.50000000       0.00252654       0.45312500 </v>
   <v>       0.33333333       0.17440154       0.48437500 </v>
   <v>       0.33333333       0.01815154       0.54687500 </v>
   <v>       0.33333333       0.36190154       0.60937500 </v>
   <v>       0.33333333       0.33065154       0.42187500 </v>
   <v>       0.50000000       0.84627654       0.51562500 </v>
   <v>       0.50000000       0.69002654       0.57812500 </v>
   <v>       0.50000000       0.65877654       0.39062500 </v>
   <v>       0.50000000       0.50252654       0.45312500 </v>
   <v>       0.33333333       0.67440154       0.48437500 </v>
   <v>       0.33333333       0.51815154       0.54687500 </v>
   <v>       0.33333333       0.86190154       0.60937500 </v>
   <v>       0.33333333       0.83065154       0.42187500 </v>
   <v>       0.83333333       0.34627654       0.51562500 </v>
   <v>       0.83333333       0.19002654       0.57812500 </v>
   <v>       0.83333333       0.15877654       0.39062500 </v>
   <v>       0.83333333       0.00252654       0.45312500 </v>
   <v>       0.66666667       0.17440154       0.48437500 </v>
   <v>       0.66666667       0.01815154       0.54687500 </v>
   <v>       0.66666667       0.36190154       0.60937500 </v>
   <v>       0.66666667       0.33065154       0.42187500 </v>
   <v>       0.83333333       0.84627654       0.51562500 </v>
   <v>       0.83333333       0.69002654       0.57812500 </v>
   <v>       0.83333333       0.65877654       0.39062500 </v>
   <v>       0.83333333       0.50252654       0.45312500 </v>
   <v>       0.66666667       0.67440154       0.48437500 </v>
   <v>       0.66666667       0.51815154       0.54687500 </v>
   <v>       0.66666667       0.86190154       0.60937500 </v>
   <v>       0.66666667       0.83065154       0.42187500 </v>
  </varray>
 </structure>
 <varray name="primitive_index" >
  <v type="int" >        1 </v>
  <v type="int" >        2 </v>
  <v type="int" >        3 </v>
  <v type="int" >        4 </v>
  <v type="int" >        5 </v>
  <v type="int" >        6 </v>
  <v type="int" >        7 </v>
  <v type="int" >        8 </v>
  <v type="int" >        9 </v>
  <v type="int" >       10 </v>
  <v type="int" >       11 </v>
  <v type="int" >       12 </v>
  <v type="int" >       13 </v>
  <v type="int" >       14 </v>
  <v type="int" >       15 </v>
  <v type="int" >       16 </v>
  <v type="int" >       17 </v>
  <v type="int" >       18 </v>
  <v type="int" >       19 </v>
  <v type="int" >       20 </v>
  <v type="int" >       21 </v>
  <v type="int" >       22 </v>
  <v type="int" >       23 </v>
  <v type="int" >       24 </v>
  <v type="int" >       25 </v>
  <v type="int" >       26 </v>
  <v type="int" >       27 </v>
  <v type="int" >       28 </v>
  <v type="int" >       29 </v>
  <v type="int" >       30 </v>
  <v type="int" >       31 </v>
  <v type="int" >       32 </v>
  <v type="int" >       33 </v>
  <v type="int" >       34 </v>
  <v type="int" >       35 </v>
  <v type="int" >       36 </v>
  <v type="int" >       37 </v>
  <v type="int" >       38 </v>
  <v type="int" >       39 </v>
  <v type="int" >       40 </v>
  <v type="int" >       41 </v>
  <v type="int" >       42 </v>
  <v type="int" >       43 </v>
  <v type="int" >       44 </v>
  <v type="int" >       45 </v>
  <v type="int" >       46 </v>
  <v type="int" >       47 </v>
  <v type="int" >       48 </v>
  <v type="int" >       49 </v>
  <v type="int" >       50 </v>
  <v type="int" >       51 </v>
  <v type="int" >       52 </v>
  <v type="int" >       53 </v>
  <v type="int" >       54 </v>
  <v type="int" >       55 </v>
  <v type="int" >       56 </v>
  <v type="int" >       57 </v>
  <v type="int" >       58 </v>
  <v type="int" >       59 </v>
  <v type="int" >       60 </v>
  <v type="int" >       61 </v>
  <v type="int" >       62 </v>
  <v type="int" >       63 </v>
  <v type="int" >       64 </v>
  <v type="int" >       65 </v>
  <v type="int" >       66 </v>
  <v type="int" >       67 </v>
  <v type="int" >       68 </v>
  <v type="int" >       69 </v>
  <v type="int" >       70 </v>
  <v type="int" >       71 </v>
  <v type="int" >       72 </v>
  <v type="int" >       73 </v>
  <v type="int" >       74 </v>
  <v type="int" >       75 </v>
  <v type="int" >       76 </v>
  <v type="int" >       77 </v>
  <v type="int" >       78 </v>
  <v type="int" >       79 </v>
  <v type="int" >       80 </v>
  <v type="int" >       81 </v>
  <v type="int" >       82 </v>
  <v type="int" >       83 </v>
  <v type="int" >       84 </v>
  <v type="int" >       85 </v>
  <v type="int" >       86 </v>
  <v type="int" >       87 </v>
  <v type="int" >       88 </v>
  <v type="int" >       89 </v>
  <v type="int" >       90 </v>
  <v type="int" >       91 </v>
  <v type="int" >       92 </v>
  <v type="int" >       93 </v>
  <v type="int" >       94 </v>
  <v type="int" >       95 </v>
  <v type="int" >       96 </v>
 </varray>
 <kpoints>
  <generation param="Monkhorst-Pack">
   <v type="int" name="divisions">       4        3        1 </v>
   <v name="usershift">      0.00000000       0.00000000       0.00000000 </v>
   <v name="genvec1">      0.25000000       0.00000000       0.00000000 </v>
   <v name="genvec2">      0.00000000       0.33333333       0.00000000 </v>
   <v name="genvec3">      0.00000000      -0.00000000       1.00000000 </v>
   <v name="shift">      0.50000000       0.00000000       0.00000000 </v>
  </generation>
  <varray name="kpointlist" >
   <v>       0.12500000       0.00000000       0.00000000 </v>
   <v>       0.37500000       0.00000000       0.00000000 </v>
   <v>       0.12500000       0.33333333       0.00000000 </v>
   <v>       0.12500000      -0.33333333       0.00000000 </v>
   <v>       0.37500000       0.33333333       0.00000000 </v>
   <v>       0.37500000      -0.33333333       0.00000000 </v>
  </varray>
  <varray name="weights" >
   <v>       0.16666667 </v>
   <v>       0.16666667 </v>
   <v>       0.16666667 </v>
   <v>       0.16666667 </v>
   <v>       0.16666667 </v>
   <v>       0.16666667 </v>
  </varray>
 </kpoints>
 <parameters>
  <separator name="general" >
   <i type="string" name="SYSTEM">unknown system</i>
   <i type="logical" name="LCOMPAT"> F  </i>
  </separator>
  <separator name="electronic" >
   <i type="string" name="PREC">normal</i>
   <i name="ENMAX">    350.00000000</i>
   <i name="ENAUG">    627.11200000</i>
   <i name="EDIFF">      0.00010000</i>
   <i type="int" name="IALGO">    38</i>
   <i type="int" name="IWAVPR">    11</i>
   <i type="int" name="NBANDS">   248</i>
   <i type="int" name="NBANDSLOW">    -1</i>
   <i type="int" name="NBANDSHIGH">    -1</i>
   <i name="NELECT">    384.00000000</i>
   <i type="int" name="TURBO">     0</i>
   <i type="int" name="IRESTART">     0</i>
   <i type="int" name="NREBOOT">     0</i>
   <i type="int" name="NMIN">     0</i>
   <i name="EREF">      0.00000000</i>
   <separator name="electronic smearing" >
    <i type="int" name="ISMEAR">     0</i>
    <i name="SIGMA">      0.05000000</i>
    <i name="KSPACING">      0.50000000</i>
    <i type="logical" name="KGAMMA"> T  </i>
    <i type="logical" name="KBLOWUP"> T  </i>
   </separator>
   <separator name="electronic projectors" >
    <i type="logical" name="LREAL"> T  </i>
    <v name="ROPT">     -0.00050000     -0.00050000</v>
    <i type="int" name="LMAXPAW">  -100</i>
    <i type="int" name="LMAXMIX">     2</i>
    <i type="logical" name="NLSPLINE"> F  </i>
   </separator>
   <separator name="electronic startup" >
    <i type="int" name="ISTART">     0</i>
    <i type="int" name="ICHARG">     2</i>
    <i type="int" name="INIWAV">     1</i>
   </separator>
   <separator name="electronic spin" >
    <i type="int" name="ISPIN">     1</i>
    <i type="logical" name="LNONCOLLINEAR"> F  </i>
    <v name="MAGMOM">      1.00000000      1.00000000      1.00000000      1.00000000      1.00000000      1.00000000      1.00000000      1.00000000      1.00000000      1.00000000      1.00000000      1.00000000      1.00000000      1.00000000      1.00000000      1.00000000      1.00000000      1.00000000      1.00000000      1.00000000
      1.00000000      1.00000000      1.00000000      1.00000000      1.00000000      1.00000000      1.00000000      1.00000000      1.00000000      1.00000000      1.00000000      1.00000000      1.00000000      1.00000000      1.00000000      1.00000000      1.00000000      1.00000000      1.00000000      1.00000000
      1.00000000      1.00000000      1.00000000      1.00000000      1.00000000      1.00000000      1.00000000      1.00000000      1.00000000      1.00000000      1.00000000      1.00000000      1.00000000      1.00000000      1.00000000      1.00000000      1.00000000      1.00000000      1.00000000      1.00000000
      1.00000000      1.00000000      1.00000000      1.00000000      1.00000000      1.00000000      1.00000000      1.00000000      1.00000000      1.00000000      1.00000000      1.00000000      1.00000000      1.00000000      1.00000000      1.00000000      1.00000000      1.00000000      1.00000000      1.00000000
      1.00000000      1.00000000      1.00000000      1.00000000      1.00000000      1.00000000      1.00000000      1.00000000      1.00000000      1.00000000      1.00000000      1.00000000      1.00000000      1.00000000      1.00000000      1.00000000</v>
    <i name="NUPDOWN">     -1.00000000</i>
    <i type="logical" name="LSORBIT"> F  </i>
    <v name="SAXIS">      0.00000000      0.00000000      1.00000000</v>
    <i type="logical" name="LSPIRAL"> F  </i>
    <v name="QSPIRAL">      0.00000000      0.00000000      0.00000000</v>
    <i type="logical" name="LZEROZ"> F  </i>
   </separator>
   <separator name="electronic exchange-correlation" >
    <i type="logical" name="LASPH"> F  </i>
    <i type="logical" name="LMETAGGA"> F  </i>
   </separator>
   <separator name="electronic convergence" >
    <i type="int" name="NELM">    60</i>
    <i type="int" name="NELMDL">    -5</i>
    <i type="int" name="NELMIN">     2</i>
    <i name="ENINI">    350.00000000</i>
    <separator name="electronic convergence detail" >
     <i type="logical" name="LDIAG"> T  </i>
     <i type="logical" name="LSUBROT"> F  </i>
     <i name="WEIMIN">      0.00100000</i>
     <i name="EBREAK">      0.00000010</i>
     <i name="DEPER">      0.30000000</i>
     <i type="int" name="NRMM">     4</i>
     <i name="TIME">      0.40000000</i>
    </separator>
   </separator>
   <separator name="electronic mixer" >
    <i name="AMIX">      0.40000000</i>
    <i name="BMIX">      1.00000000</i>
    <i name="AMIN">      0.10000000</i>
    <i name="AMIX_MAG">      1.60000000</i>
    <i name="BMIX_MAG">      1.00000000</i>
    <separator name="electronic mixer details" >
     <i type="int" name="IMIX">     4</i>
     <i type="logical" name="MIXFIRST"> F  </i>
     <i type="int" name="MAXMIX">   -45</i>
     <i name="WC">    100.00000000</i>
     <i type="int" name="INIMIX">     1</i>
     <i type="int" name="MIXPRE">     1</i>
     <i type="int" name="MREMOVE">     5</i>
    </separator>
   </separator>
   <separator name="electronic dipolcorrection" >
    <i type="logical" name="LDIPOL"> F  </i>
    <i type="logical" name="LMONO"> F  </i>
    <i type="int" name="IDIPOL">     0</i>
    <i name="EPSILON">      1.00000000</i>
    <v name="DIPOL">   -100.00000000   -100.00000000   -100.00000000</v>
    <i name="EFIELD">      0.00000000</i>
   </separator>
  </separator>
  <separator name="grids" >
   <i type="int" name="NGX">    48</i>
   <i type="int" name="NGY">    80</i>
   <i type="int" name="NGZ">   140</i>
   <i type="int" name="NGXF">    96</i>
   <i type="int" name="NGYF">   160</i>
   <i type="int" name="NGZF">   280</i>
   <i type="logical" name="ADDGRID"> F  </i>
  </separator>
  <separator name="ionic" >
   <i type="int" name="NSW">  2000</i>
   <i type="int" name="IBRION">     2</i>
   <i type="int" name="MDALGO">     0</i>
   <i type="int" name="ISIF">     0</i>
   <i name="PSTRESS">      0.00000000</i>
   <i name="EDIFFG">     -0.03000000</i>
   <i type="int" name="NFREE">     1</i>
   <i name="POTIM">      0.50000000</i>
   <i name="SMASS">     -3.00000000</i>
   <i name="SCALEE">      1.00000000</i>
  </separator>
  <separator name="ionic md" >
   <i name="TEBEG">      0.00010000</i>
   <i name="TEEND">      0.00010000</i>
   <i type="int" name="NBLOCK">     1</i>
   <i type="int" name="KBLOCK">  2000</i>
   <i type="int" name="NPACO">   256</i>
   <i name="APACO">     16.00000000</i>
  </separator>
  <separator name="symmetry" >
   <i type="int" name="ISYM">     0</i>
   <i name="SYMPREC">      0.00000000</i>
  </separator>
  <separator name="dos" >
   <i type="int" name="LORBIT">     0</i>
   <v name="RWIGS">     -1.00000000     -1.00000000</v>
   <i type="int" name="NEDOS">   301</i>
   <i name="EMIN">     10.00000000</i>
   <i name="EMAX">    -10.00000000</i>
   <i name="EFERMI">      0.00000000</i>
  </separator>
  <separator name="writing" >
   <i type="int" name="NWRITE">     2</i>
   <i type="logical" name="LWAVE"> F  </i>
   <i type="logical" name="LDOWNSAMPLE"> F  </i>
   <i type="logical" name="LCHARG"> T  </i>
   <i type="logical" name="LPARD"> F  </i>
   <i type="logical" name="LVTOT"> F  </i>
   <i type="logical" name="LVHAR"> F  </i>
   <i type="logical" name="LELF"> F  </i>
   <i type="logical" name="LOPTICS"> F  </i>
   <v name="STM">      0.00000000      0.00000000      0.00000000      0.00000000      0.00000000      0.00000000      0.00000000</v>
  </separator>
  <separator name="performance" >
   <i type="int" name="NPAR">     8</i>
   <i type="int" name="NSIM">     4</i>
   <i type="int" name="NBLK">    -1</i>
   <i type="logical" name="LPLANE"> T  </i>
   <i type="logical" name="LSCALAPACK"> T  </i>
   <i type="logical" name="LSCAAWARE"> F  </i>
   <i type="logical" name="LSCALU"> F  </i>
   <i type="logical" name="LASYNC"> F  </i>
   <i type="logical" name="LORBITALREAL"> F  </i>
  </separator>
  <separator name="miscellaneous" >
   <i type="int" name="IDIOT">     3</i>
   <i type="int" name="PHON_NSTRUCT">    -1</i>
   <i type="logical" name="LMUSIC"> F  </i>
   <v name="POMASS">     69.72300000     14.00100000</v>
   <v name="DARWINR">      0.00000000      0.00000000</v>
   <v name="DARWINV">      1.00000000      1.00000000</v>
   <i type="logical" name="LCORR"> T  </i>
  </separator>
  <i type="logical" name="GGA_COMPAT"> T  </i>
  <i type="logical" name="LBERRY"> F  </i>
  <i type="int" name="ICORELEVEL">     0</i>
  <i type="logical" name="LDAU"> F  </i>
  <i type="int" name="I_CONSTRAINED_M">     0</i>
  <separator name="electronic exchange-correlation" >
   <i type="string" name="GGA">RP</i>
   <i type="int" name="VOSKOWN">     0</i>
   <i type="logical" name="LHFCALC"> F  </i>
   <i type="string" name="PRECFOCK"></i>
   <i type="logical" name="LSYMGRAD"> F  </i>
   <i type="logical" name="LHFONE"> F  </i>
   <i type="logical" name="LRHFCALC"> F  </i>
   <i type="logical" name="LTHOMAS"> F  </i>
   <i type="logical" name="LMODELHF"> F  </i>
   <i type="logical" name="LFOCKACE"> F  </i>
   <i name="ENCUT4O">     -1.00000000</i>
   <i type="int" name="EXXOEP">     0</i>
   <i type="int" name="FOURORBIT">     0</i>
   <i name="AEXX">      0.00000000</i>
   <i name="HFALPHA">      0.00000000</i>
   <i name="MCALPHA">      0.00000000</i>
   <i name="ALDAX">      1.00000000</i>
   <i name="AGGAX">      1.00000000</i>
   <i name="ALDAC">      1.00000000</i>
   <i name="AGGAC">      1.00000000</i>
   <i type="int" name="NKREDX">     1</i>
   <i type="int" name="NKREDY">     1</i>
   <i type="int" name="NKREDZ">     1</i>
   <i type="logical" name="SHIFTRED"> F  </i>
   <i type="logical" name="ODDONLY"> F  </i>
   <i type="logical" name="EVENONLY"> F  </i>
   <i type="int" name="LMAXFOCK">     0</i>
   <i type="int" name="NMAXFOCKAE">     0</i>
   <i type="logical" name="LFOCKAEDFT"> F  </i>
   <i name="HFSCREEN">      0.00000000</i>
   <i name="HFSCREENC">      0.00000000</i>
   <i type="int" name="NBANDSGWLOW">     0</i>
  </separator>
  <separator name="vdW DFT" >
   <i type="logical" name="LUSE_VDW"> F  </i>
   <i name="Zab_VDW">     -0.84910000</i>
   <i name="PARAM1">      0.12340000</i>
   <i name="PARAM2">      1.00000000</i>
   <i name="PARAM3">      0.00000000</i>
  </separator>
  <separator name="model GW" >
   <i type="int" name="MODEL_GW">     0</i>
   <i name="MODEL_EPS0">     29.55078804</i>
   <i name="MODEL_ALPHA">      1.00000000</i>
  </separator>
  <separator name="linear response parameters" >
   <i type="logical" name="LEPSILON"> F  </i>
   <i type="logical" name="LRPA"> F  </i>
   <i type="logical" name="LNABLA"> F  </i>
   <i type="logical" name="LVEL"> F  </i>
   <i type="int" name="KINTER">     0</i>
   <i name="CSHIFT">      0.10000000</i>
   <i name="OMEGAMAX">     -1.00000000</i>
   <i name="DEG_THRESHOLD">      0.00200000</i>
   <i name="RTIME">     -0.10000000</i>
   <i name="WPLASMAI">      0.00000000</i>
   <v name="DFIELD">      0.00000000      0.00000000      0.00000000</v>
   <v name="WPLASMA">      0.00000000      0.00000000      0.00000000      0.00000000      0.00000000      0.00000000      0.00000000      0.00000000      0.00000000</v>
  </separator>
  <separator name="orbital magnetization" >
   <i type="logical" name="NUCIND"> F  </i>
   <v name="MAGPOS">      0.00000000      0.00000000      0.00000000</v>
   <i type="logical" name="LNICSALL"> T  </i>
   <i type="logical" name="ORBITALMAG"> F  </i>
   <i type="logical" name="LMAGBLOCH"> F  </i>
   <i type="logical" name="LCHIMAG"> F  </i>
   <i type="logical" name="LGAUGE"> T  </i>
   <i type="int" name="MAGATOM">     0</i>
   <v name="MAGDIPOL">      0.00000000      0.00000000      0.00000000</v>
   <v name="AVECCONST">      0.00000000      0.00000000      0.00000000</v>
  </separator>
  <separator name="response functions" >
   <i type="logical" name="LFINITE_TEMPERATURE"> F  </i>
   <i type="logical" name="LADDER"> F  </i>
   <i type="logical" name="LRPAFORCE"> F  </i>
   <i type="logical" name="LFXC"> F  </i>
   <i type="logical" name="LHARTREE"> T  </i>
   <i type="int" name="IBSE">     0</i>
   <v type="int" name="KPOINT">    -1     0     0     0</v>
   <i type="logical" name="LTCTC"> F  </i>
   <i type="logical" name="LTCTE"> F  </i>
   <i type="logical" name="LTETE"> F  </i>
   <i type="logical" name="LTRIPLET"> F  </i>
   <i type="logical" name="LFXCEPS"> F  </i>
   <i type="logical" name="LFXHEG"> F  </i>
   <i type="int" name="NATURALO">     2</i>
   <i type="logical" name="LHOLEGF"> F  </i>
   <i type="logical" name="L2ORDER"> F  </i>
   <i type="logical" name="LDMP1"> F  </i>
   <i type="logical" name="LMP2LT"> F  </i>
   <i type="logical" name="LSMP2LT"> F  </i>
   <i type="logical" name="LGWLF"> F  </i>
   <i name="ENCUTGW">     -2.00000000</i>
   <i name="ENCUTGWSOFT">     -2.00000000</i>
   <i name="ENCUTLF">     -1.00000000</i>
   <i type="logical" name="LESF_SPLINES"> F  </i>
   <i type="int" name="LMAXMP2">    -1</i>
   <i name="SCISSOR">      0.00000000</i>
   <i type="int" name="NOMEGA">     0</i>
   <i type="int" name="NOMEGAR">     0</i>
   <i type="int" name="NBANDSGW">    -1</i>
   <i type="int" name="NBANDSO">    -1</i>
   <i type="int" name="NBANDSV">    -1</i>
   <i type="int" name="NELM">     1</i>
   <i type="int" name="NELMHF">     1</i>
   <i type="int" name="DIM">     3</i>
   <i type="int" name="IESPILON">     4</i>
   <i type="int" name="ANTIRES">     0</i>
   <i name="OMEGAMAX">    -30.00000000</i>
   <i name="OMEGAMIN">    -30.00000000</i>
   <i name="OMEGATL">   -200.00000000</i>
   <i type="int" name="OMEGAGRID">     0</i>
   <i name="CSHIFT">     -0.10000000</i>
   <i type="logical" name="LSELFENERGY"> F  </i>
   <i type="logical" name="LSPECTRAL"> F  </i>
   <i type="logical" name="LSPECTRALGW"> F  </i>
   <i type="logical" name="LSINGLES"> F  </i>
   <i type="logical" name="LFERMIGW"> F  </i>
   <i type="logical" name="ODDONLYGW"> F  </i>
   <i type="logical" name="EVENONLYGW"> F  </i>
   <i type="int" name="NKREDLFX">     1</i>
   <i type="int" name="NKREDLFY">     1</i>
   <i type="int" name="NKREDLFZ">     1</i>
   <i type="int" name="MAXMEM">  2800</i>
   <i type="int" name="TELESCOPE">     0</i>
   <i type="int" name="NTAUPAR">    -1</i>
   <i type="int" name="NOMEGAPAR">    -1</i>
   <i name="LAMBDA">      1.00000000</i>
  </separator>
  <separator name="External order field" >
   <i name="OFIELD_KAPPA">      0.00000000</i>
   <v name="OFIELD_K">      0.00000000      0.00000000      0.00000000</v>
   <i name="OFIELD_Q6_NEAR">      0.00000000</i>
   <i name="OFIELD_Q6_FAR">      0.00000000</i>
   <i name="OFIELD_A">      0.00000000</i>
  </separator>
 </parameters>
 <atominfo>
  <atoms>      96 </atoms>
  <types>       2 </types>
  <array name="atoms" >
   <dimension dim="1">ion</dimension>
   <field type="string">element</field>
   <field type="int">atomtype</field>
   <set>
    <rc><c>Ga</c><c>   1</c></rc>
    <rc><c>Ga</c><c>   1</c></rc>
    <rc><c>Ga</c><c>   1</c></rc>
    <rc><c>Ga</c><c>   1</c></rc>
    <rc><c>Ga</c><c>   1</c></rc>
    <rc><c>Ga</c><c>   1</c></rc>
    <rc><c>Ga</c><c>   1</c></rc>
    <rc><c>Ga</c><c>   1</c></rc>
    <rc><c>Ga</c><c>   1</c></rc>
    <rc><c>Ga</c><c>   1</c></rc>
    <rc><c>Ga</c><c>   1</c></rc>
    <rc><c>Ga</c><c>   1</c></rc>
    <rc><c>Ga</c><c>   1</c></rc>
    <rc><c>Ga</c><c>   1</c></rc>
    <rc><c>Ga</c><c>   1</c></rc>
    <rc><c>Ga</c><c>   1</c></rc>
    <rc><c>Ga</c><c>   1</c></rc>
    <rc><c>Ga</c><c>   1</c></rc>
    <rc><c>Ga</c><c>   1</c></rc>
    <rc><c>Ga</c><c>   1</c></rc>
    <rc><c>Ga</c><c>   1</c></rc>
    <rc><c>Ga</c><c>   1</c></rc>
    <rc><c>Ga</c><c>   1</c></rc>
    <rc><c>Ga</c><c>   1</c></rc>
    <rc><c>Ga</c><c>   1</c></rc>
    <rc><c>Ga</c><c>   1</c></rc>
    <rc><c>Ga</c><c>   1</c></rc>
    <rc><c>Ga</c><c>   1</c></rc>
    <rc><c>Ga</c><c>   1</c></rc>
    <rc><c>Ga</c><c>   1</c></rc>
    <rc><c>Ga</c><c>   1</c></rc>
    <rc><c>Ga</c><c>   1</c></rc>
    <rc><c>Ga</c><c>   1</c></rc>
    <rc><c>Ga</c><c>   1</c></rc>
    <rc><c>Ga</c><c>   1</c></rc>
    <rc><c>Ga</c><c>   1</c></rc>
    <rc><c>Ga</c><c>   1</c></rc>
    <rc><c>Ga</c><c>   1</c></rc>
    <rc><c>Ga</c><c>   1</c></rc>
    <rc><c>Ga</c><c>   1</c></rc>
    <rc><c>Ga</c><c>   1</c></rc>
    <rc><c>Ga</c><c>   1</c></rc>
    <rc><c>Ga</c><c>   1</c></rc>
    <rc><c>Ga</c><c>   1</c></rc>
    <rc><c>Ga</c><c>   1</c></rc>
    <rc><c>Ga</c><c>   1</c></rc>
    <rc><c>Ga</c><c>   1</c></rc>
    <rc><c>Ga</c><c>   1</c></rc>
    <rc><c>N </c><c>   2</c></rc>
    <rc><c>N </c><c>   2</c></rc>
    <rc><c>N </c><c>   2</c></rc>
    <rc><c>N </c><c>   2</c></rc>
    <rc><c>N </c><c>   2</c></rc>
    <rc><c>N </c><c>   2</c></rc>
    <rc><c>N </c><c>   2</c></rc>
    <rc><c>N </c><c>   2</c></rc>
    <rc><c>N </c><c>   2</c></rc>
    <rc><c>N </c><c>   2</c></rc>
    <rc><c>N </c><c>   2</c></rc>
    <rc><c>N </c><c>   2</c></rc>
    <rc><c>N </c><c>   2</c></rc>
    <rc><c>N </c><c>   2</c></rc>
    <rc><c>N </c><c>   2</c></rc>
    <rc><c>N </c><c>   2</c></rc>
    <rc><c>N </c><c>   2</c></rc>
    <rc><c>N </c><c>   2</c></rc>
    <rc><c>N </c><c>   2</c></rc>
    <rc><c>N </c><c>   2</c></rc>
    <rc><c>N </c><c>   2</c></rc>
    <rc><c>N </c><c>   2</c></rc>
    <rc><c>N </c><c>   2</c></rc>
    <rc><c>N </c><c>   2</c></rc>
    <rc><c>N </c><c>   2</c></rc>
    <rc><c>N </c><c>   2</c></rc>
    <rc><c>N </c><c>   2</c></rc>
    <rc><c>N </c><c>   2</c></rc>
    <rc><c>N </c><c>   2</c></rc>
    <rc><c>N </c><c>   2</c></rc>
    <rc><c>N </c><c>   2</c></rc>
    <rc><c>N </c><c>   2</c></rc>
    <rc><c>N </c><c>   2</c></rc>
    <rc><c>N </c><c>   2</c></rc>
    <rc><c>N </c><c>   2</c></rc>
    <rc><c>N </c><c>   2</c></rc>
    <rc><c>N </c><c>   2</c></rc>
    <rc><c>N </c><c>   2</c></rc>
    <rc><c>N </c><c>   2</c></rc>
    <rc><c>N </c><c>   2</c></rc>
    <rc><c>N </c><c>   2</c></rc>
    <rc><c>N </c><c>   2</c></rc>
    <rc><c>N </c><c>   2</c></rc>
    <rc><c>N </c><c>   2</c></rc>
    <rc><c>N </c><c>   2</c></rc>
    <rc><c>N </c><c>   2</c></rc>
    <rc><c>N </c><c>   2</c></rc>
    <rc><c>N </c><c>   2</c></rc>
   </set>
  </array>
  <array name="atomtypes" >
   <dimension dim="1">type</dimension>
   <field type="int">atomspertype</field>
   <field type="string">element</field>
   <field>mass</field>
   <field>valence</field>
   <field type="string">pseudopotential</field>
   <set>
    <rc><c>  48</c><c>Ga</c><c>     69.72300000</c><c>      3.00000000</c><c>  PAW_PBE Ga 08Apr2002                  </c></rc>
    <rc><c>  48</c><c>N </c><c>     14.00100000</c><c>      5.00000000</c><c>  PAW_PBE N 08Apr2002                   </c></rc>
   </set>
  </array>
 </atominfo>
 <structure name="initialpos" >
  <crystal>
   <varray name="basis" >
    <v>       9.79690419       0.00000000      -0.00000000 </v>
    <v>      -0.00000000      15.93614809      -1.40856980 </v>
    <v>       0.00000000       0.00000000      30.28425064 </v>
   </varray>
   <i name="volume">   4728.12608715 </i>
   <varray name="rec_basis" >
    <v>       0.10207306       0.00000000      -0.00000000 </v>
    <v>      -0.00000000       0.06275042       0.00000000 </v>
    <v>       0.00000000       0.00291862       0.03302046 </v>
   </varray>
  </crystal>
  <varray name="positions" >
   <v>       0.00000000       0.23690154       0.60937500 </v>
   <v>       0.00000000       0.20565154       0.42187500 </v>
   <v>       0.00000000       0.04940154       0.48437500 </v>
   <v>       0.00000000       0.39315154       0.54687500 </v>
   <v>       0.16666667       0.37752654       0.45312500 </v>
   <v>       0.16666667       0.22127654       0.51562500 </v>
   <v>       0.16666667       0.06502654       0.57812500 </v>
   <v>       0.16666667       0.03377654       0.39062500 </v>
   <v>       0.00000000       0.73690154       0.60937500 </v>
   <v>       0.00000000       0.70565154       0.42187500 </v>
   <v>       0.00000000       0.54940154       0.48437500 </v>
   <v>       0.00000000       0.89315154       0.54687500 </v>
   <v>       0.16666667       0.87752654       0.45312500 </v>
   <v>       0.16666667       0.72127654       0.51562500 </v>
   <v>       0.16666667       0.56502654       0.57812500 </v>
   <v>       0.16666667       0.53377654       0.39062500 </v>
   <v>       0.33333333       0.23690154       0.60937500 </v>
   <v>       0.33333333       0.20565154       0.42187500 </v>
   <v>       0.33333333       0.04940154       0.48437500 </v>
   <v>       0.33333333       0.39315154       0.54687500 </v>
   <v>       0.50000000       0.37752654       0.45312500 </v>
   <v>       0.50000000       0.22127654       0.51562500 </v>
   <v>       0.50000000       0.06502654       0.57812500 </v>
   <v>       0.50000000       0.03377654       0.39062500 </v>
   <v>       0.33333333       0.73690154       0.60937500 </v>
   <v>       0.33333333       0.70565154       0.42187500 </v>
   <v>       0.33333333       0.54940154       0.48437500 </v>
   <v>       0.33333333       0.89315154       0.54687500 </v>
   <v>       0.50000000       0.87752654       0.45312500 </v>
   <v>       0.50000000       0.72127654       0.51562500 </v>
   <v>       0.50000000       0.56502654       0.57812500 </v>
   <v>       0.50000000       0.53377654       0.39062500 </v>
   <v>       0.66666667       0.23690154       0.60937500 </v>
   <v>       0.66666667       0.20565154       0.42187500 </v>
   <v>       0.66666667       0.04940154       0.48437500 </v>
   <v>       0.66666667       0.39315154       0.54687500 </v>
   <v>       0.83333333       0.37752654       0.45312500 </v>
   <v>       0.83333333       0.22127654       0.51562500 </v>
   <v>       0.83333333       0.06502654       0.57812500 </v>
   <v>       0.83333333       0.03377654       0.39062500 </v>
   <v>       0.66666667       0.73690154       0.60937500 </v>
   <v>       0.66666667       0.70565154       0.42187500 </v>
   <v>       0.66666667       0.54940154       0.48437500 </v>
   <v>       0.66666667       0.89315154       0.54687500 </v>
   <v>       0.83333333       0.87752654       0.45312500 </v>
   <v>       0.83333333       0.72127654       0.51562500 </v>
   <v>       0.83333333       0.56502654       0.57812500 </v>
   <v>       0.83333333       0.53377654       0.39062500 </v>
   <v>       0.16666667       0.34627654       0.51562500 </v>
   <v>       0.16666667       0.19002654       0.57812500 </v>
   <v>       0.16666667       0.15877654       0.39062500 </v>
   <v>       0.16666667       0.00252654       0.45312500 </v>
   <v>       0.00000000       0.17440154       0.48437500 </v>
   <v>       0.00000000       0.01815154       0.54687500 </v>
   <v>       0.00000000       0.36190154       0.60937500 </v>
   <v>       0.00000000       0.33065154       0.42187500 </v>
   <v>       0.16666667       0.84627654       0.51562500 </v>
   <v>       0.16666667       0.69002654       0.57812500 </v>
   <v>       0.16666667       0.65877654       0.39062500 </v>
   <v>       0.16666667       0.50252654       0.45312500 </v>
   <v>       0.00000000       0.67440154       0.48437500 </v>
   <v>       0.00000000       0.51815154       0.54687500 </v>
   <v>       0.00000000       0.86190154       0.60937500 </v>
   <v>       0.00000000       0.83065154       0.42187500 </v>
   <v>       0.50000000       0.34627654       0.51562500 </v>
   <v>       0.50000000       0.19002654       0.57812500 </v>
   <v>       0.50000000       0.15877654       0.39062500 </v>
   <v>       0.50000000       0.00252654       0.45312500 </v>
   <v>       0.33333333       0.17440154       0.48437500 </v>
   <v>       0.33333333       0.01815154       0.54687500 </v>
   <v>       0.33333333       0.36190154       0.60937500 </v>
   <v>       0.33333333       0.33065154       0.42187500 </v>
   <v>       0.50000000       0.84627654       0.51562500 </v>
   <v>       0.50000000       0.69002654       0.57812500 </v>
   <v>       0.50000000       0.65877654       0.39062500 </v>
   <v>       0.50000000       0.50252654       0.45312500 </v>
   <v>       0.33333333       0.67440154       0.48437500 </v>
   <v>       0.33333333       0.51815154       0.54687500 </v>
   <v>       0.33333333       0.86190154       0.60937500 </v>
   <v>       0.33333333       0.83065154       0.42187500 </v>
   <v>       0.83333333       0.34627654       0.51562500 </v>
   <v>       0.83333333       0.19002654       0.57812500 </v>
   <v>       0.83333333       0.15877654       0.39062500 </v>
   <v>       0.83333333       0.00252654       0.45312500 </v>
   <v>       0.66666667       0.17440154       0.48437500 </v>
   <v>       0.66666667       0.01815154       0.54687500 </v>
   <v>       0.66666667       0.36190154       0.60937500 </v>
   <v>       0.66666667       0.33065154       0.42187500 </v>
   <v>       0.83333333       0.84627654       0.51562500 </v>
   <v>       0.83333333       0.69002654       0.57812500 </v>
   <v>       0.83333333       0.65877654       0.39062500 </v>
   <v>       0.83333333       0.50252654       0.45312500 </v>
   <v>       0.66666667       0.67440154       0.48437500 </v>
   <v>       0.66666667       0.51815154       0.54687500 </v>
   <v>       0.66666667       0.86190154       0.60937500 </v>
   <v>       0.66666667       0.83065154       0.42187500 </v>
  </varray>
  <varray name="selective"  type="logical" >
   <v type="logical" >  T  T  T </v>
   <v type="logical" >  F  F  F </v>
   <v type="logical" >  F  F  F </v>
   <v type="logical" >  T  T  T </v>
   <v type="logical" >  F  F  F </v>
   <v type="logical" >  F  F  F </v>
   <v type="logical" >  T  T  T </v>
   <v type="logical" >  F  F  F </v>
   <v type="logical" >  T  T  T </v>
   <v type="logical" >  F  F  F </v>
   <v type="logical" >  F  F  F </v>
   <v type="logical" >  T  T  T </v>
   <v type="logical" >  F  F  F </v>
   <v type="logical" >  F  F  F </v>
   <v type="logical" >  T  T  T </v>
   <v type="logical" >  F  F  F </v>
   <v type="logical" >  T  T  T </v>
   <v type="logical" >  F  F  F </v>
   <v type="logical" >  F  F  F </v>
   <v type="logical" >  T  T  T </v>
   <v type="logical" >  F  F  F </v>
   <v type="logical" >  F  F  F </v>
   <v type="logical" >  T  T  T </v>
   <v type="logical" >  F  F  F </v>
   <v type="logical" >  T  T  T </v>
   <v type="logical" >  F  F  F </v>
   <v type="logical" >  F  F  F </v>
   <v type="logical" >  T  T  T </v>
   <v type="logical" >  F  F  F </v>
   <v type="logical" >  F  F  F </v>
   <v type="logical" >  T  T  T </v>
   <v type="logical" >  F  F  F </v>
   <v type="logical" >  T  T  T </v>
   <v type="logical" >  F  F  F </v>
   <v type="logical" >  F  F  F </v>
   <v type="logical" >  T  T  T </v>
   <v type="logical" >  F  F  F </v>
   <v type="logical" >  F  F  F </v>
   <v type="logical" >  T  T  T </v>
   <v type="logical" >  F  F  F </v>
   <v type="logical" >  T  T  T </v>
   <v type="logical" >  F  F  F </v>
   <v type="logical" >  F  F  F </v>
   <v type="logical" >  T  T  T </v>
   <v type="logical" >  F  F  F </v>
   <v type="logical" >  F  F  F </v>
   <v type="logical" >  T  T  T </v>
   <v type="logical" >  F  F  F </v>
   <v type="logical" >  F  F  F </v>
   <v type="logical" >  T  T  T </v>
   <v type="logical" >  F  F  F </v>
   <v type="logical" >  F  F  F </v>
   <v type="logical" >  F  F  F </v>
   <v type="logical" >  T  T  T </v>
   <v type="logical" >  T  T  T </v>
   <v type="logical" >  F  F  F </v>
   <v type="logical" >  F  F  F </v>
   <v type="logical" >  T  T  T </v>
   <v type="logical" >  F  F  F </v>
   <v type="logical" >  F  F  F </v>
   <v type="logical" >  F  F  F </v>
   <v type="logical" >  T  T  T </v>
   <v type="logical" >  T  T  T </v>
   <v type="logical" >  F  F  F </v>
   <v type="logical" >  F  F  F </v>
   <v type="logical" >  T  T  T </v>
   <v type="logical" >  F  F  F </v>
   <v type="logical" >  F  F  F </v>
   <v type="logical" >  F  F  F </v>
   <v type="logical" >  T  T  T </v>
   <v type="logical" >  T  T  T </v>
   <v type="logical" >  F  F  F </v>
   <v type="logical" >  F  F  F </v>
   <v type="logical" >  T  T  T </v>
   <v type="logical" >  F  F  F </v>
   <v type="logical" >  F  F  F </v>
   <v type="logical" >  F  F  F </v>
   <v type="logical" >  T  T  T </v>
   <v type="logical" >  T  T  T </v>
   <v type="logical" >  F  F  F </v>
   <v type="logical" >  F  F  F </v>
   <v type="logical" >  T  T  T </v>
   <v type="logical" >  F  F  F </v>
   <v type="logical" >  F  F  F </v>
   <v type="logical" >  F  F  F </v>
   <v type="logical" >  T  T  T </v>
   <v type="logical" >  T  T  T </v>
   <v type="logical" >  F  F  F </v>
   <v type="logical" >  F  F  F </v>
   <v type="logical" >  T  T  T </v>
   <v type="logical" >  F  F  F </v>
   <v type="logical" >  F  F  F </v>
   <v type="logical" >  F  F  F </v>
   <v type="logical" >  T  T  T </v>
   <v type="logical" >  T  T  T </v>
   <v type="logical" >  F  F  F </v>
  </varray>
  <nose>
   <v>      -3.00000000       0.00000000       0.00010000       0.00010000 </v>
  </nose>
 </structure>
 <calculation>
  <scstep>
   <time name="dav">   19.95   20.11</time>
   <time name="total">   20.09   20.25</time>
   <energy>
    <i name="alphaZ">    315.80475264 </i>
    <i name="ewald"> 108068.36112254 </i>
    <i name="hartreedc">-120860.36661401 </i>
    <i name="XCdc">    -19.68167275 </i>
    <i name="pawpsdc">  12846.03118282 </i>
    <i name="pawaedc"> -11738.92072573 </i>
    <i name="eentropy">     -0.03732932 </i>
    <i name="bandstr">  -1146.23006337 </i>
    <i name="atom">  15495.06517988 </i>
    <i name="e_fr_energy">   2960.02583270 </i>
    <i name="e_wo_entrp">   2960.06316203 </i>
    <i name="e_0_energy">   2960.04449736 </i>
   </energy>
  </scstep>
  <scstep>
   <time name="dav">   23.67   23.85</time>
   <time name="total">   23.67   23.85</time>
   <energy>
    <i name="e_fr_energy">    165.99286858 </i>
    <i name="e_wo_entrp">    166.01027184 </i>
    <i name="e_0_energy">    166.00157021 </i>
   </energy>
  </scstep>
  <scstep>
   <time name="dav">   22.87   23.06</time>
   <time name="total">   22.88   23.06</time>
   <energy>
    <i name="e_fr_energy">   -560.31894004 </i>
    <i name="e_wo_entrp">   -560.31893910 </i>
    <i name="e_0_energy">   -560.31893957 </i>
   </energy>
  </scstep>
  <scstep>
   <time name="dav">   20.52   20.83</time>
   <time name="total">   20.52   20.83</time>
   <energy>
    <i name="e_fr_energy">   -599.26853921 </i>
    <i name="e_wo_entrp">   -599.26853921 </i>
    <i name="e_0_energy">   -599.26853921 </i>
   </energy>
  </scstep>
  <scstep>
   <time name="dav">   24.59   24.75</time>
   <time name="total">   25.23   25.40</time>
   <energy>
    <i name="e_fr_energy">   -600.95211057 </i>
    <i name="e_wo_entrp">   -600.95211057 </i>
    <i name="e_0_energy">   -600.95211057 </i>
   </energy>
  </scstep>
  <scstep>
   <time name="dav">   19.66   19.85</time>
   <time name="total">   20.42   20.61</time>
   <energy>
    <i name="e_fr_energy">   -511.72565107 </i>
    <i name="e_wo_entrp">   -511.68727431 </i>
    <i name="e_0_energy">   -511.70646269 </i>
   </energy>
  </scstep>
  <scstep>
   <time name="dav">   24.62   24.81</time>
   <time name="total">   25.38   25.57</time>
   <energy>
    <i name="e_fr_energy">   -540.73725217 </i>
    <i name="e_wo_entrp">   -540.70604720 </i>
    <i name="e_0_energy">   -540.72164969 </i>
   </energy>
  </scstep>
  <scstep>
   <time name="dav">   25.76   26.02</time>
   <time name="total">   26.53   26.79</time>
   <energy>
    <i name="e_fr_energy">   -499.46678360 </i>
    <i name="e_wo_entrp">   -499.45366222 </i>
    <i name="e_0_energy">   -499.46022291 </i>
   </energy>
  </scstep>
  <scstep>
   <time name="dav">   22.67   22.91</time>
   <time name="total">   23.44   23.68</time>
   <energy>
    <i name="e_fr_energy">   -490.32653000 </i>
    <i name="e_wo_entrp">   -490.31905804 </i>
    <i name="e_0_energy">   -490.32279402 </i>
   </energy>
  </scstep>
  <scstep>
   <time name="dav">   22.22   22.42</time>
   <time name="total">   23.09   23.29</time>
   <energy>
    <i name="e_fr_energy">   -488.40643088 </i>
    <i name="e_wo_entrp">   -488.40033283 </i>
    <i name="e_0_energy">   -488.40338186 </i>
   </energy>
  </scstep>
  <scstep>
   <time name="dav">   22.68   22.83</time>
   <time name="total">   23.45   23.61</time>
   <energy>
    <i name="e_fr_energy">   -488.14858418 </i>
    <i name="e_wo_entrp">   -488.13839635 </i>
    <i name="e_0_energy">   -488.14349026 </i>
   </energy>
  </scstep>
  <scstep>
   <time name="dav">   22.84   23.07</time>
   <time name="total">   23.61   23.85</time>
   <energy>
    <i name="e_fr_energy">   -487.91715691 </i>
    <i name="e_wo_entrp">   -487.90587586 </i>
    <i name="e_0_energy">   -487.91151638 </i>
   </energy>
  </scstep>
  <scstep>
   <time name="dav">   22.48   22.71</time>
   <time name="total">   23.24   23.48</time>
   <energy>
    <i name="e_fr_energy">   -487.78226194 </i>
    <i name="e_wo_entrp">   -487.77016502 </i>
    <i name="e_0_energy">   -487.77621348 </i>
   </energy>
  </scstep>
  <scstep>
   <time name="dav">   22.53   22.72</time>
   <time name="total">   23.30   23.50</time>
   <energy>
    <i name="e_fr_energy">   -487.80917451 </i>
    <i name="e_wo_entrp">   -487.79668871 </i>
    <i name="e_0_energy">   -487.80293161 </i>
   </energy>
  </scstep>
  <scstep>
   <time name="dav">   23.38   23.67</time>
   <time name="total">   24.13   24.43</time>
   <energy>
    <i name="e_fr_energy">   -487.75597115 </i>
    <i name="e_wo_entrp">   -487.74364868 </i>
    <i name="e_0_energy">   -487.74980992 </i>
   </energy>
  </scstep>
  <scstep>
   <time name="dav">   22.26   22.49</time>
   <time name="total">   23.01   23.25</time>
   <energy>
    <i name="e_fr_energy">   -487.76160676 </i>
    <i name="e_wo_entrp">   -487.74920876 </i>
    <i name="e_0_energy">   -487.75540776 </i>
   </energy>
  </scstep>
  <scstep>
   <time name="dav">   23.76   23.96</time>
   <time name="total">   24.53   24.73</time>
   <energy>
    <i name="e_fr_energy">   -487.75823101 </i>
    <i name="e_wo_entrp">   -487.74577196 </i>
    <i name="e_0_energy">   -487.75200148 </i>
   </energy>
  </scstep>
  <scstep>
   <time name="dav">   23.65   23.91</time>
   <time name="total">   24.43   24.69</time>
   <energy>
    <i name="e_fr_energy">   -487.75876214 </i>
    <i name="e_wo_entrp">   -487.74633550 </i>
    <i name="e_0_energy">   -487.75254882 </i>
   </energy>
  </scstep>
  <scstep>
   <time name="dav">   24.25   24.48</time>
   <time name="total">   25.03   25.26</time>
   <energy>
    <i name="e_fr_energy">   -487.75825588 </i>
    <i name="e_wo_entrp">   -487.74583240 </i>
    <i name="e_0_energy">   -487.75204414 </i>
   </energy>
  </scstep>
  <scstep>
   <time name="dav">   21.33   21.59</time>
   <time name="total">   22.10   22.37</time>
   <energy>
    <i name="e_fr_energy">   -487.75828766 </i>
    <i name="e_wo_entrp">   -487.74583497 </i>
    <i name="e_0_energy">   -487.75206132 </i>
   </energy>
  </scstep>
  <scstep>
   <time name="dav">   20.31   20.49</time>
   <time name="total">   21.08   21.28</time>
   <energy>
    <i name="e_fr_energy">   -487.75884106 </i>
    <i name="e_wo_entrp">   -487.74633903 </i>
    <i name="e_0_energy">   -487.75259005 </i>
   </energy>
  </scstep>
  <scstep>
   <time name="dav">   17.31   17.50</time>
   <time name="total">   18.09   18.29</time>
   <energy>
    <i name="e_fr_energy">   -487.75994080 </i>
    <i name="e_wo_entrp">   -487.74738652 </i>
    <i name="e_0_energy">   -487.75366366 </i>
   </energy>
  </scstep>
  <scstep>
   <time name="dav">   15.89   16.01</time>
   <time name="total">   16.67   16.79</time>
   <energy>
    <i name="e_fr_energy">   -487.76066080 </i>
    <i name="e_wo_entrp">   -487.74809963 </i>
    <i name="e_0_energy">   -487.75438021 </i>
   </energy>
  </scstep>
  <scstep>
   <time name="dav">   15.18   15.35</time>
   <time name="total">   15.95   16.12</time>
   <energy>
    <i name="e_fr_energy">   -487.76177160 </i>
    <i name="e_wo_entrp">   -487.74920818 </i>
    <i name="e_0_energy">   -487.75548989 </i>
   </energy>
  </scstep>
  <scstep>
   <time name="dav">   16.01   16.18</time>
   <time name="total">   16.78   16.96</time>
   <energy>
    <i name="e_fr_energy">   -487.76277690 </i>
    <i name="e_wo_entrp">   -487.75020533 </i>
    <i name="e_0_energy">   -487.75649112 </i>
   </energy>
  </scstep>
  <scstep>
   <time name="dav">   16.43   16.61</time>
   <time name="total">   17.21   17.40</time>
   <energy>
    <i name="e_fr_energy">   -487.76368609 </i>
    <i name="e_wo_entrp">   -487.75109925 </i>
    <i name="e_0_energy">   -487.75739267 </i>
   </energy>
  </scstep>
  <scstep>
   <time name="dav">   15.26   15.42</time>
   <time name="total">   16.03   16.19</time>
   <energy>
    <i name="e_fr_energy">   -487.76409555 </i>
    <i name="e_wo_entrp">   -487.75150232 </i>
    <i name="e_0_energy">   -487.75779893 </i>
   </energy>
  </scstep>
  <scstep>
   <time name="dav">   15.48   15.63</time>
   <time name="total">   16.26   16.41</time>
   <energy>
    <i name="e_fr_energy">   -487.76453364 </i>
    <i name="e_wo_entrp">   -487.75194384 </i>
    <i name="e_0_energy">   -487.75823874 </i>
   </energy>
  </scstep>
  <scstep>
   <time name="dav">   14.43   14.57</time>
   <time name="total">   15.21   15.37</time>
   <energy>
    <i name="e_fr_energy">   -487.76481874 </i>
    <i name="e_wo_entrp">   -487.75223223 </i>
    <i name="e_0_energy">   -487.75852548 </i>
   </energy>
  </scstep>
  <scstep>
   <time name="dav">   14.06   14.27</time>
   <time name="total">   14.84   15.06</time>
   <energy>
    <i name="e_fr_energy">   -487.76498513 </i>
    <i name="e_wo_entrp">   -487.75239959 </i>
    <i name="e_0_energy">   -487.75869236 </i>
   </energy>
  </scstep>
  <scstep>
   <time name="dav">   14.26   14.37</time>
   <time name="total">   15.03   15.15</time>
   <energy>
    <i name="e_fr_energy">   -487.76515462 </i>
    <i name="e_wo_entrp">   -487.75256811 </i>
    <i name="e_0_energy">   -487.75886136 </i>
   </energy>
  </scstep>
  <scstep>
   <time name="dav">   14.00   14.10</time>
   <time name="total">   14.78   14.88</time>
   <energy>
    <i name="e_fr_energy">   -487.76528873 </i>
    <i name="e_wo_entrp">   -487.75270104 </i>
    <i name="e_0_energy">   -487.75899489 </i>
   </energy>
  </scstep>
  <scstep>
   <time name="dav">   14.03   14.16</time>
   <time name="total">   14.80   14.93</time>
   <energy>
    <i name="e_fr_energy">   -487.76541831 </i>
    <i name="e_wo_entrp">   -487.75282961 </i>
    <i name="e_0_energy">   -487.75912396 </i>
   </energy>
  </scstep>
  <scstep>
   <time name="dav">   13.61   13.78</time>
   <time name="total">   13.73   13.90</time>
   <energy>
    <i name="alphaZ">    315.80475264 </i>
    <i name="ewald"> 108068.36112254 </i>
    <i name="hartreedc">-122034.51668599 </i>
    <i name="XCdc">     41.24465438 </i>
    <i name="pawpsdc">  33309.23608254 </i>
    <i name="pawaedc"> -32225.21857929 </i>
    <i name="eentropy">     -0.01258895 </i>
    <i name="bandstr">  -3457.72941751 </i>
    <i name="atom">  15495.06517988 </i>
    <i name="e_fr_energy">   -487.76547977 </i>
    <i name="e_wo_entrp">   -487.75289081 </i>
    <i name="e_0_energy">   -487.75918529 </i>
   </energy>
  </scstep>
  <structure>
   <crystal>
    <varray name="basis" >
     <v>       9.79690419       0.00000000      -0.00000000 </v>
     <v>      -0.00000000      15.93614809      -1.40856980 </v>
     <v>       0.00000000       0.00000000      30.28425064 </v>
    </varray>
    <i name="volume">   4728.12608715 </i>
    <varray name="rec_basis" >
     <v>       0.10207306       0.00000000      -0.00000000 </v>
     <v>      -0.00000000       0.06275042       0.00000000 </v>
     <v>       0.00000000       0.00291862       0.03302046 </v>
    </varray>
   </crystal>
   <varray name="positions" >
    <v>       0.00000000       0.23690154       0.60937500 </v>
    <v>       0.00000000       0.20565154       0.42187500 </v>
    <v>       0.00000000       0.04940154       0.48437500 </v>
    <v>       0.00000000       0.39315154       0.54687500 </v>
    <v>       0.16666667       0.37752654       0.45312500 </v>
    <v>       0.16666667       0.22127654       0.51562500 </v>
    <v>       0.16666667       0.06502654       0.57812500 </v>
    <v>       0.16666667       0.03377654       0.39062500 </v>
    <v>       0.00000000       0.73690154       0.60937500 </v>
    <v>       0.00000000       0.70565154       0.42187500 </v>
    <v>       0.00000000       0.54940154       0.48437500 </v>
    <v>       0.00000000       0.89315154       0.54687500 </v>
    <v>       0.16666667       0.87752654       0.45312500 </v>
    <v>       0.16666667       0.72127654       0.51562500 </v>
    <v>       0.16666667       0.56502654       0.57812500 </v>
    <v>       0.16666667       0.53377654       0.39062500 </v>
    <v>       0.33333333       0.23690154       0.60937500 </v>
    <v>       0.33333333       0.20565154       0.42187500 </v>
    <v>       0.33333333       0.04940154       0.48437500 </v>
    <v>       0.33333333       0.39315154       0.54687500 </v>
    <v>       0.50000000       0.37752654       0.45312500 </v>
    <v>       0.50000000       0.22127654       0.51562500 </v>
    <v>       0.50000000       0.06502654       0.57812500 </v>
    <v>       0.50000000       0.03377654       0.39062500 </v>
    <v>       0.33333333       0.73690154       0.60937500 </v>
    <v>       0.33333333       0.70565154       0.42187500 </v>
    <v>       0.33333333       0.54940154       0.48437500 </v>
    <v>       0.33333333       0.89315154       0.54687500 </v>
    <v>       0.50000000       0.87752654       0.45312500 </v>
    <v>       0.50000000       0.72127654       0.51562500 </v>
    <v>       0.50000000       0.56502654       0.57812500 </v>
    <v>       0.50000000       0.53377654       0.39062500 </v>
    <v>       0.66666667       0.23690154       0.60937500 </v>
    <v>       0.66666667       0.20565154       0.42187500 </v>
    <v>       0.66666667       0.04940154       0.48437500 </v>
    <v>       0.66666667       0.39315154       0.54687500 </v>
    <v>       0.83333333       0.37752654       0.45312500 </v>
    <v>       0.83333333       0.22127654       0.51562500 </v>
    <v>       0.83333333       0.06502654       0.57812500 </v>
    <v>       0.83333333       0.03377654       0.39062500 </v>
    <v>       0.66666667       0.73690154       0.60937500 </v>
    <v>       0.66666667       0.70565154       0.42187500 </v>
    <v>       0.66666667       0.54940154       0.48437500 </v>
    <v>       0.66666667       0.89315154       0.54687500 </v>
    <v>       0.83333333       0.87752654       0.45312500 </v>
    <v>       0.83333333       0.72127654       0.51562500 </v>
    <v>       0.83333333       0.56502654       0.57812500 </v>
    <v>       0.83333333       0.53377654       0.39062500 </v>
    <v>       0.16666667       0.34627654       0.51562500 </v>
    <v>       0.16666667       0.19002654       0.57812500 </v>
    <v>       0.16666667       0.15877654       0.39062500 </v>
    <v>       0.16666667       0.00252654       0.45312500 </v>
    <v>       0.00000000       0.17440154       0.48437500 </v>
    <v>       0.00000000       0.01815154       0.54687500 </v>
    <v>       0.00000000       0.36190154       0.60937500 </v>
    <v>       0.00000000       0.33065154       0.42187500 </v>
    <v>       0.16666667       0.84627654       0.51562500 </v>
    <v>       0.16666667       0.69002654       0.57812500 </v>
    <v>       0.16666667       0.65877654       0.39062500 </v>
    <v>       0.16666667       0.50252654       0.45312500 </v>
    <v>       0.00000000       0.67440154       0.48437500 </v>
    <v>       0.00000000       0.51815154       0.54687500 </v>
    <v>       0.00000000       0.86190154       0.60937500 </v>
    <v>       0.00000000       0.83065154       0.42187500 </v>
    <v>       0.50000000       0.34627654       0.51562500 </v>
    <v>       0.50000000       0.19002654       0.57812500 </v>
    <v>       0.50000000       0.15877654       0.39062500 </v>
    <v>       0.50000000       0.00252654       0.45312500 </v>
    <v>       0.33333333       0.17440154       0.48437500 </v>
    <v>       0.33333333       0.01815154       0.54687500 </v>
    <v>       0.33333333       0.36190154       0.60937500 </v>
    <v>       0.33333333       0.33065154       0.42187500 </v>
    <v>       0.50000000       0.84627654       0.51562500 </v>
    <v>       0.50000000       0.69002654       0.57812500 </v>
    <v>       0.50000000       0.65877654       0.39062500 </v>
    <v>       0.50000000       0.50252654       0.45312500 </v>
    <v>       0.33333333       0.67440154       0.48437500 </v>
    <v>       0.33333333       0.51815154       0.54687500 </v>
    <v>       0.33333333       0.86190154       0.60937500 </v>
    <v>       0.33333333       0.83065154       0.42187500 </v>
    <v>       0.83333333       0.34627654       0.51562500 </v>
    <v>       0.83333333       0.19002654       0.57812500 </v>
    <v>       0.83333333       0.15877654       0.39062500 </v>
    <v>       0.83333333       0.00252654       0.45312500 </v>
    <v>       0.66666667       0.17440154       0.48437500 </v>
    <v>       0.66666667       0.01815154       0.54687500 </v>
    <v>       0.66666667       0.36190154       0.60937500 </v>
    <v>       0.66666667       0.33065154       0.42187500 </v>
    <v>       0.83333333       0.84627654       0.51562500 </v>
    <v>       0.83333333       0.69002654       0.57812500 </v>
    <v>       0.83333333       0.65877654       0.39062500 </v>
    <v>       0.83333333       0.50252654       0.45312500 </v>
    <v>       0.66666667       0.67440154       0.48437500 </v>
    <v>       0.66666667       0.51815154       0.54687500 </v>
    <v>       0.66666667       0.86190154       0.60937500 </v>
    <v>       0.66666667       0.83065154       0.42187500 </v>
   </varray>
  </structure>
  <varray name="forces" >
   <v>       0.00000137       2.54810883      -1.42275177 </v>
   <v>      -0.00017858       0.38294708      -1.77806507 </v>
   <v>      -0.00001586       0.53892789      -0.96770447 </v>
   <v>      -0.00000158      -1.19454868       0.66022835 </v>
   <v>       0.00000456      -1.08756398      -1.52898709 </v>
   <v>      -0.00001190       0.56502968      -1.27623803 </v>
   <v>       0.00000270      -0.15421216      -1.07554715 </v>
   <v>      -0.00005576       1.67180995       0.27643514 </v>
   <v>       0.00000122       2.54810930      -1.42274515 </v>
   <v>       0.00003709       0.38302201      -1.77804488 </v>
   <v>       0.00000460       0.53891401      -0.96769550 </v>
   <v>       0.00001789      -1.19455080       0.66023687 </v>
   <v>       0.00001180      -1.08763561      -1.52901336 </v>
   <v>      -0.00000418       0.56502962      -1.27623979 </v>
   <v>       0.00000444      -0.15422234      -1.07554964 </v>
   <v>      -0.00003523       1.67182821       0.27638421 </v>
   <v>       0.00000199       2.54815441      -1.42277743 </v>
   <v>      -0.00001905       0.38300580      -1.77800737 </v>
   <v>       0.00000098       0.53892044      -0.96769684 </v>
   <v>       0.00001174      -1.19455843       0.66026286 </v>
   <v>       0.00004439      -1.08760824      -1.52898970 </v>
   <v>       0.00001341       0.56503830      -1.27623941 </v>
   <v>       0.00000080      -0.15421308      -1.07553246 </v>
   <v>       0.00007087       1.67178626       0.27645648 </v>
   <v>       0.00000136       2.54808175      -1.42275823 </v>
   <v>      -0.00012116       0.38305633      -1.77802457 </v>
   <v>      -0.00000899       0.53891364      -0.96769010 </v>
   <v>      -0.00000691      -1.19454666       0.66020547 </v>
   <v>      -0.00010787      -1.08759269      -1.52898936 </v>
   <v>      -0.00000766       0.56502314      -1.27622728 </v>
   <v>      -0.00000088      -0.15422052      -1.07553461 </v>
   <v>      -0.00000583       1.67175353       0.27645396 </v>
   <v>      -0.00000330       2.54815569      -1.42276092 </v>
   <v>       0.00019809       0.38301009      -1.77805640 </v>
   <v>       0.00001499       0.53893241      -0.96770139 </v>
   <v>      -0.00001004      -1.19456005       0.66026908 </v>
   <v>      -0.00004868      -1.08759010      -1.52899845 </v>
   <v>      -0.00000135       0.56503176      -1.27624707 </v>
   <v>      -0.00000348      -0.15421258      -1.07556019 </v>
   <v>      -0.00001517       1.67191124       0.27634101 </v>
   <v>      -0.00000246       2.54811796      -1.42275978 </v>
   <v>       0.00008417       0.38294427      -1.77802184 </v>
   <v>       0.00000467       0.53890203      -0.96769013 </v>
   <v>      -0.00001087      -1.19455052       0.66025149 </v>
   <v>       0.00009671      -1.08755632      -1.52900096 </v>
   <v>       0.00001199       0.56501948      -1.27622992 </v>
   <v>      -0.00000368      -0.15421830      -1.07555435 </v>
   <v>       0.00004131       1.67179773       0.27639495 </v>
   <v>      -0.00001905       0.11753695       0.38225350 </v>
   <v>       0.00000344      -1.23333177       1.84803456 </v>
   <v>       0.00003506      -1.14661798       0.33001251 </v>
   <v>       0.00001588      -0.15430792       0.50913145 </v>
   <v>       0.00002477      -0.26809088       1.36856357 </v>
   <v>      -0.00000004       0.11057876       1.20126094 </v>
   <v>       0.00000193      -0.96484271       0.34367864 </v>
   <v>       0.00002812       0.26849326       1.12969603 </v>
   <v>      -0.00000677       0.11754930       0.38227534 </v>
   <v>       0.00000769      -1.23331413       1.84801553 </v>
   <v>       0.00001672      -1.14657073       0.33001071 </v>
   <v>       0.00001002      -0.15430397       0.50916650 </v>
   <v>      -0.00000228      -0.26809441       1.36856065 </v>
   <v>      -0.00000182       0.11058100       1.20126212 </v>
   <v>       0.00000077      -0.96481658       0.34370720 </v>
   <v>      -0.00001456       0.26848222       1.12969159 </v>
   <v>       0.00000469       0.11754062       0.38224860 </v>
   <v>      -0.00000620      -1.23333242       1.84802799 </v>
   <v>      -0.00004358      -1.14663685       0.33000050 </v>
   <v>      -0.00001928      -0.15430611       0.50912592 </v>
   <v>       0.00000380      -0.26810323       1.36854905 </v>
   <v>      -0.00000466       0.11057536       1.20124960 </v>
   <v>      -0.00001477      -0.96481493       0.34371986 </v>
   <v>       0.00000082       0.26849605       1.12962288 </v>
   <v>       0.00001900       0.11754463       0.38225690 </v>
   <v>      -0.00000246      -1.23331148       1.84800487 </v>
   <v>       0.00000632      -1.14660161       0.32997043 </v>
   <v>       0.00000119      -0.15429430       0.50913049 </v>
   <v>       0.00001788      -0.26810268       1.36855412 </v>
   <v>      -0.00000145       0.11059441       1.20124325 </v>
   <v>       0.00000040      -0.96480487       0.34372474 </v>
   <v>       0.00002536       0.26849367       1.12964254 </v>
   <v>       0.00001426       0.11754077       0.38226401 </v>
   <v>       0.00000282      -1.23332850       1.84803233 </v>
   <v>       0.00000500      -1.14657404       0.33010047 </v>
   <v>       0.00000364      -0.15431954       0.50918787 </v>
   <v>      -0.00002861      -0.26810050       1.36856123 </v>
   <v>       0.00000516       0.11058091       1.20124581 </v>
   <v>       0.00001268      -0.96484934       0.34367045 </v>
   <v>      -0.00002887       0.26849066       1.12967964 </v>
   <v>      -0.00001238       0.11754011       0.38225014 </v>
   <v>      -0.00000529      -1.23332162       1.84801459 </v>
   <v>      -0.00002361      -1.14655963       0.32996129 </v>
   <v>      -0.00001105      -0.15430418       0.50915431 </v>
   <v>      -0.00001575      -0.26808193       1.36854494 </v>
   <v>       0.00000400       0.11059163       1.20124825 </v>
   <v>      -0.00000080      -0.96477907       0.34375454 </v>
   <v>      -0.00001078       0.26848583       1.12964833 </v>
  </varray>
  <energy>
   <i name="e_fr_energy">   -487.76547977 </i>
   <i name="e_wo_entrp">   -487.75289081 </i>
   <i name="e_0_energy">   -487.75918529 </i>
  </energy>
  <time name="totalsc">  703.05  709.83</time>
 </calculation>
 <calculation>
  <scstep>
   <time name="dav">   17.85   18.05</time>
   <time name="total">   18.60   18.82</time>
   <energy>
    <i name="alphaZ">    315.80475264 </i>
    <i name="ewald"> 107893.41351275 </i>
    <i name="hartreedc">-121842.76144564 </i>
    <i name="XCdc">     41.98341168 </i>
    <i name="pawpsdc">  33309.15157273 </i>
    <i name="pawaedc"> -32225.13405993 </i>
    <i name="eentropy">     -0.03002828 </i>
    <i name="bandstr">  -3478.53570740 </i>
    <i name="atom">  15495.06517988 </i>
    <i name="e_fr_energy">   -491.04281157 </i>
    <i name="e_wo_entrp">   -491.01278329 </i>
    <i name="e_0_energy">   -491.02779743 </i>
   </energy>
  </scstep>
  <scstep>
   <time name="dav">   24.71   24.95</time>
   <time name="total">   25.44   25.69</time>
   <energy>
    <i name="e_fr_energy">   -496.19232047 </i>
    <i name="e_wo_entrp">   -496.18372019 </i>
    <i name="e_0_energy">   -496.18802033 </i>
   </energy>
  </scstep>
  <scstep>
   <time name="dav">   24.43   24.63</time>
   <time name="total">   25.18   25.38</time>
   <energy>
    <i name="e_fr_energy">   -491.54529272 </i>
    <i name="e_wo_entrp">   -491.51521193 </i>
    <i name="e_0_energy">   -491.53025232 </i>
   </energy>
  </scstep>
  <scstep>
   <time name="dav">   20.79   21.02</time>
   <time name="total">   21.55   21.78</time>
   <energy>
    <i name="e_fr_energy">   -491.44081003 </i>
    <i name="e_wo_entrp">   -491.42365118 </i>
    <i name="e_0_energy">   -491.43223060 </i>
   </energy>
  </scstep>
  <scstep>
   <time name="dav">   21.69   21.96</time>
   <time name="total">   22.44   22.71</time>
   <energy>
    <i name="e_fr_energy">   -491.43339827 </i>
    <i name="e_wo_entrp">   -491.41408306 </i>
    <i name="e_0_energy">   -491.42374066 </i>
   </energy>
  </scstep>
  <scstep>
   <time name="dav">   22.26   22.42</time>
   <time name="total">   23.01   23.17</time>
   <energy>
    <i name="e_fr_energy">   -491.42583541 </i>
    <i name="e_wo_entrp">   -491.40750793 </i>
    <i name="e_0_energy">   -491.41667167 </i>
   </energy>
  </scstep>
  <scstep>
   <time name="dav">   21.90   22.09</time>
   <time name="total">   22.64   22.84</time>
   <energy>
    <i name="e_fr_energy">   -491.41594891 </i>
    <i name="e_wo_entrp">   -491.39698236 </i>
    <i name="e_0_energy">   -491.40646564 </i>
   </energy>
  </scstep>
  <scstep>
   <time name="dav">   21.25   21.44</time>
   <time name="total">   22.01   22.20</time>
   <energy>
    <i name="e_fr_energy">   -491.41557199 </i>
    <i name="e_wo_entrp">   -491.39669435 </i>
    <i name="e_0_energy">   -491.40613317 </i>
   </energy>
  </scstep>
  <scstep>
   <time name="dav">   21.60   21.89</time>
   <time name="total">   22.34   22.64</time>
   <energy>
    <i name="e_fr_energy">   -491.41573218 </i>
    <i name="e_wo_entrp">   -491.39679842 </i>
    <i name="e_0_energy">   -491.40626530 </i>
   </energy>
  </scstep>
  <scstep>
   <time name="dav">   17.21   17.36</time>
   <time name="total">   17.33   17.48</time>
   <energy>
    <i name="alphaZ">    315.80475264 </i>
    <i name="ewald"> 107893.41351275 </i>
    <i name="hartreedc">-121858.62266754 </i>
    <i name="XCdc">     43.28584336 </i>
    <i name="pawpsdc">  33877.96477972 </i>
    <i name="pawaedc"> -32794.50999456 </i>
    <i name="eentropy">     -0.01890106 </i>
    <i name="bandstr">  -3463.79823681 </i>
    <i name="atom">  15495.06517988 </i>
    <i name="e_fr_energy">   -491.41573161 </i>
    <i name="e_wo_entrp">   -491.39683055 </i>
    <i name="e_0_energy">   -491.40628108 </i>
   </energy>
  </scstep>
  <structure>
   <crystal>
    <varray name="basis" >
     <v>       9.79690419       0.00000000       0.00000000 </v>
     <v>       0.00000000      15.93614809      -1.40856980 </v>
     <v>       0.00000000       0.00000000      30.28425064 </v>
    </varray>
    <i name="volume">   4728.12608715 </i>
    <varray name="rec_basis" >
     <v>       0.10207306      -0.00000000       0.00000000 </v>
     <v>       0.00000000       0.06275042       0.00000000 </v>
     <v>      -0.00000000       0.00291862       0.03302046 </v>
    </varray>
   </crystal>
   <varray name="positions" >
    <v>       0.00000001       0.24461529       0.60746734 </v>
    <v>       0.00000000       0.20565154       0.42187500 </v>
    <v>       0.00000000       0.04940154       0.48437500 </v>
    <v>      -0.00000001       0.38953535       0.54775855 </v>
    <v>       0.16666667       0.37752654       0.45312500 </v>
    <v>       0.16666667       0.22127654       0.51562500 </v>
    <v>       0.16666668       0.06455970       0.57638995 </v>
    <v>       0.16666667       0.03377654       0.39062500 </v>
    <v>       0.00000001       0.74461530       0.60746735 </v>
    <v>       0.00000000       0.70565154       0.42187500 </v>
    <v>       0.00000000       0.54940154       0.48437500 </v>
    <v>       0.00000009       0.88953534       0.54775856 </v>
    <v>       0.16666667       0.87752654       0.45312500 </v>
    <v>       0.16666667       0.72127654       0.51562500 </v>
    <v>       0.16666669       0.56455967       0.57638994 </v>
    <v>       0.16666667       0.53377654       0.39062500 </v>
    <v>       0.33333334       0.24461543       0.60746731 </v>
    <v>       0.33333333       0.20565154       0.42187500 </v>
    <v>       0.33333333       0.04940154       0.48437500 </v>
    <v>       0.33333339       0.38953532       0.54775860 </v>
    <v>       0.50000000       0.37752654       0.45312500 </v>
    <v>       0.50000000       0.22127654       0.51562500 </v>
    <v>       0.50000000       0.06455970       0.57638997 </v>
    <v>       0.50000000       0.03377654       0.39062500 </v>
    <v>       0.33333334       0.74461521       0.60746733 </v>
    <v>       0.33333333       0.70565154       0.42187500 </v>
    <v>       0.33333333       0.54940154       0.48437500 </v>
    <v>       0.33333330       0.88953535       0.54775851 </v>
    <v>       0.50000000       0.87752654       0.45312500 </v>
    <v>       0.50000000       0.72127654       0.51562500 </v>
    <v>       0.50000000       0.56455968       0.57638996 </v>
    <v>       0.50000000       0.53377654       0.39062500 </v>
    <v>       0.66666665       0.24461544       0.60746734 </v>
    <v>       0.66666667       0.20565154       0.42187500 </v>
    <v>       0.66666667       0.04940154       0.48437500 </v>
    <v>       0.66666662       0.38953531       0.54775861 </v>
    <v>       0.83333333       0.37752654       0.45312500 </v>
    <v>       0.83333333       0.22127654       0.51562500 </v>
    <v>       0.83333331       0.06455970       0.57638992 </v>
    <v>       0.83333333       0.03377654       0.39062500 </v>
    <v>       0.66666666       0.74461532       0.60746733 </v>
    <v>       0.66666667       0.70565154       0.42187500 </v>
    <v>       0.66666667       0.54940154       0.48437500 </v>
    <v>       0.66666662       0.88953534       0.54775858 </v>
    <v>       0.83333333       0.87752654       0.45312500 </v>
    <v>       0.83333333       0.72127654       0.51562500 </v>
    <v>       0.83333331       0.56455968       0.57638993 </v>
    <v>       0.83333333       0.53377654       0.39062500 </v>
    <v>       0.16666667       0.34627654       0.51562500 </v>
    <v>       0.16666669       0.18629294       0.58089525 </v>
    <v>       0.16666667       0.15877654       0.39062500 </v>
    <v>       0.16666667       0.00252654       0.45312500 </v>
    <v>       0.00000000       0.17440154       0.48437500 </v>
    <v>      -0.00000000       0.01848629       0.54880417 </v>
    <v>       0.00000001       0.35898072       0.60978663 </v>
    <v>       0.00000000       0.33065154       0.42187500 </v>
    <v>       0.16666667       0.84627654       0.51562500 </v>
    <v>       0.16666671       0.68629299       0.58089523 </v>
    <v>       0.16666667       0.65877654       0.39062500 </v>
    <v>       0.16666667       0.50252654       0.45312500 </v>
    <v>       0.00000000       0.67440154       0.48437500 </v>
    <v>      -0.00000001       0.51848630       0.54880417 </v>
    <v>       0.00000000       0.85898080       0.60978668 </v>
    <v>       0.00000000       0.83065154       0.42187500 </v>
    <v>       0.50000000       0.34627654       0.51562500 </v>
    <v>       0.49999997       0.18629294       0.58089524 </v>
    <v>       0.50000000       0.15877654       0.39062500 </v>
    <v>       0.50000000       0.00252654       0.45312500 </v>
    <v>       0.33333333       0.17440154       0.48437500 </v>
    <v>       0.33333331       0.01848628       0.54880415 </v>
    <v>       0.33333326       0.35898081       0.60978670 </v>
    <v>       0.33333333       0.33065154       0.42187500 </v>
    <v>       0.50000000       0.84627654       0.51562500 </v>
    <v>       0.49999999       0.68629300       0.58089521 </v>
    <v>       0.50000000       0.65877654       0.39062500 </v>
    <v>       0.50000000       0.50252654       0.45312500 </v>
    <v>       0.33333333       0.67440154       0.48437500 </v>
    <v>       0.33333332       0.51848634       0.54880415 </v>
    <v>       0.33333333       0.85898084       0.60978671 </v>
    <v>       0.33333333       0.83065154       0.42187500 </v>
    <v>       0.83333333       0.34627654       0.51562500 </v>
    <v>       0.83333334       0.18629295       0.58089525 </v>
    <v>       0.83333333       0.15877654       0.39062500 </v>
    <v>       0.83333333       0.00252654       0.45312500 </v>
    <v>       0.66666667       0.17440154       0.48437500 </v>
    <v>       0.66666670       0.01848630       0.54880415 </v>
    <v>       0.66666673       0.35898070       0.60978661 </v>
    <v>       0.66666667       0.33065154       0.42187500 </v>
    <v>       0.83333333       0.84627654       0.51562500 </v>
    <v>       0.83333330       0.68629297       0.58089522 </v>
    <v>       0.83333333       0.65877654       0.39062500 </v>
    <v>       0.83333333       0.50252654       0.45312500 </v>
    <v>       0.66666667       0.67440154       0.48437500 </v>
    <v>       0.66666669       0.51848633       0.54880415 </v>
    <v>       0.66666667       0.85898092       0.60978676 </v>
    <v>       0.66666667       0.83065154       0.42187500 </v>
   </varray>
  </structure>
  <varray name="forces" >
   <v>       0.00013163      -0.25835276      -1.05732828 </v>
   <v>      -0.00070855       0.36553568      -1.91692218 </v>
   <v>      -0.00008335       0.39483624      -0.77708542 </v>
   <v>       0.00024580      -0.39157159       0.65200304 </v>
   <v>       0.00159024      -1.13805576      -1.60008033 </v>
   <v>       0.00005473       0.26912973      -0.79512430 </v>
   <v>      -0.00002245       0.02667137      -0.67521982 </v>
   <v>      -0.00010795       1.68299033       0.16635202 </v>
   <v>       0.00009401      -0.26527293      -1.05675388 </v>
   <v>      -0.00117699       0.36371083      -1.91562828 </v>
   <v>      -0.00016120       0.39519409      -0.77695086 </v>
   <v>       0.00007978      -0.39053576       0.64792369 </v>
   <v>       0.00099011      -1.13521369      -1.59866883 </v>
   <v>       0.00003468       0.26881704      -0.79482965 </v>
   <v>       0.00000892       0.02699761      -0.67504874 </v>
   <v>      -0.00051664       1.68300569       0.16829835 </v>
   <v>      -0.00007037      -0.26460933      -1.05703412 </v>
   <v>       0.00102811       0.36733048      -1.91694810 </v>
   <v>       0.00010455       0.39490926      -0.77706680 </v>
   <v>      -0.00007755      -0.39073735       0.64798917 </v>
   <v>      -0.00112292      -1.13818452      -1.60038570 </v>
   <v>      -0.00005474       0.26911948      -0.79521815 </v>
   <v>      -0.00003715       0.02685150      -0.67647483 </v>
   <v>       0.00030941       1.68383212       0.16528351 </v>
   <v>      -0.00007970      -0.26638788      -1.05668416 </v>
   <v>       0.00107064       0.36487445      -1.91560767 </v>
   <v>       0.00011404       0.39522172      -0.77688417 </v>
   <v>      -0.00000585      -0.39039082       0.64716998 </v>
   <v>       0.00037102      -1.13583902      -1.59930450 </v>
   <v>      -0.00000876       0.26888064      -0.79496972 </v>
   <v>      -0.00004816       0.02714781      -0.67628255 </v>
   <v>       0.00092705       1.68376253       0.16737189 </v>
   <v>      -0.00006116      -0.24993213      -1.05759121 </v>
   <v>      -0.00032345       0.36595053      -1.91721422 </v>
   <v>      -0.00002079       0.39481851      -0.77715303 </v>
   <v>      -0.00016717      -0.39266717       0.65734051 </v>
   <v>      -0.00046994      -1.13733564      -1.59997564 </v>
   <v>      -0.00000154       0.26906121      -0.79519555 </v>
   <v>       0.00005502       0.02660778      -0.67517934 </v>
   <v>      -0.00020371       1.68357477       0.16568079 </v>
   <v>      -0.00001446      -0.25428125      -1.05715355 </v>
   <v>       0.00010372       0.36519069      -1.91582792 </v>
   <v>       0.00004783       0.39522094      -0.77700289 </v>
   <v>      -0.00007441      -0.39199416       0.65485990 </v>
   <v>      -0.00136156      -1.13535857      -1.59890200 </v>
   <v>      -0.00002668       0.26884351      -0.79493324 </v>
   <v>       0.00003575       0.02697165      -0.67503162 </v>
   <v>      -0.00041170       1.68358166       0.16728274 </v>
   <v>      -0.00025950      -0.00653683       0.51915180 </v>
   <v>      -0.00008884      -0.22685200       1.14542108 </v>
   <v>       0.00004836      -1.13078235       0.32731793 </v>
   <v>       0.00011058      -0.11671566       0.73737807 </v>
   <v>      -0.00000436      -0.29973600       1.59973039 </v>
   <v>      -0.00012716      -0.61181562       0.50695602 </v>
   <v>       0.00180840       1.15511967       0.03343061 </v>
   <v>       0.00019381       0.28483703       1.13357140 </v>
   <v>      -0.00013768      -0.00654656       0.51873224 </v>
   <v>      -0.00003095      -0.22715973       1.14548539 </v>
   <v>       0.00019591      -1.13065493       0.32450580 </v>
   <v>       0.00017957      -0.11733163       0.73629057 </v>
   <v>       0.00002354      -0.29974001       1.59964236 </v>
   <v>      -0.00011419      -0.61226583       0.50699017 </v>
   <v>       0.00147702       1.16122303       0.03723902 </v>
   <v>       0.00019180       0.28491590       1.13264126 </v>
   <v>       0.00039719      -0.00662963       0.51944738 </v>
   <v>       0.00019172      -0.22649599       1.14536795 </v>
   <v>      -0.00008652      -1.13126632       0.32901211 </v>
   <v>      -0.00001868      -0.11667770       0.73770889 </v>
   <v>       0.00001665      -0.29989024       1.59969784 </v>
   <v>       0.00014266      -0.61182477       0.50694078 </v>
   <v>      -0.00102297       1.16081232       0.03733118 </v>
   <v>      -0.00011153       0.28470831       1.13368733 </v>
   <v>       0.00019211      -0.00662408       0.51917282 </v>
   <v>       0.00014346      -0.22676065       1.14543149 </v>
   <v>      -0.00029760      -1.13098512       0.32600748 </v>
   <v>      -0.00023497      -0.11729460       0.73659250 </v>
   <v>       0.00000048      -0.29983251       1.59969265 </v>
   <v>       0.00010593      -0.61217910       0.50692590 </v>
   <v>      -0.00136307       1.16220915       0.03788089 </v>
   <v>      -0.00009922       0.28481673       1.13294953 </v>
   <v>      -0.00014930      -0.00678180       0.51957620 </v>
   <v>      -0.00010950      -0.22628418       1.14531653 </v>
[...]
       <r>   -12.0561     0.0000    96.0000 </r>
       <r>   -11.9774     0.0000    96.0000 </r>
       <r>   -11.8988     0.0000    96.0000 </r>
       <r>   -11.8201     0.0000    96.0000 </r>
       <r>   -11.7415     0.0000    96.0000 </r>
       <r>   -11.6628     0.0000    96.0000 </r>
       <r>   -11.5842     0.0000    96.0000 </r>
       <r>   -11.5055     0.0000    96.0000 </r>
       <r>   -11.4269     0.0000    96.0000 </r>
       <r>   -11.3482     0.0000    96.0000 </r>
       <r>   -11.2696     0.0000    96.0000 </r>
       <r>   -11.1909     0.0000    96.0000 </r>
       <r>   -11.1123     0.0000    96.0000 </r>
       <r>   -11.0336     0.0000    96.0000 </r>
       <r>   -10.9550     0.0060    96.0005 </r>
       <r>   -10.8763     1.9343    96.1526 </r>
       <r>   -10.7977    16.1960    97.4264 </r>
       <r>   -10.7190     7.1719    97.9905 </r>
       <r>   -10.6404     1.3661    98.0979 </r>
       <r>   -10.5617    16.3262    99.3820 </r>
       <r>   -10.4831    10.0887   100.1754 </r>
       <r>   -10.4044     4.7660   100.5503 </r>
       <r>   -10.3258    10.2443   101.3560 </r>
       <r>   -10.2471    21.7968   103.0703 </r>
       <r>   -10.1685    36.1695   105.9150 </r>
       <r>   -10.0898    19.3285   107.4351 </r>
       <r>   -10.0112    15.2433   108.6340 </r>
       <r>    -9.9325    17.5225   110.0121 </r>
       <r>    -9.8539    27.6348   112.1856 </r>
       <r>    -9.7752    35.8373   115.0042 </r>
       <r>    -9.6966    47.0329   118.7033 </r>
       <r>    -9.6179    49.6294   122.6066 </r>
       <r>    -9.5393    60.3248   127.3511 </r>
       <r>    -9.4606    66.9893   132.6197 </r>
       <r>    -9.3820    51.6915   136.6852 </r>
       <r>    -9.3033    13.7844   137.7693 </r>
       <r>    -9.2247    16.8156   139.0919 </r>
       <r>    -9.1460    28.8410   141.3602 </r>
       <r>    -9.0674    21.2865   143.0343 </r>
       <r>    -8.9887    16.1831   144.3071 </r>
       <r>    -8.9101    14.3699   145.4373 </r>
       <r>    -8.8314    33.4857   148.0709 </r>
       <r>    -8.7528    40.4355   151.2512 </r>
       <r>    -8.6741    22.7096   153.0372 </r>
       <r>    -8.5955    57.1672   157.5334 </r>
       <r>    -8.5168    35.3505   160.3137 </r>
       <r>    -8.4382    15.9592   161.5689 </r>
       <r>    -8.3595    34.3499   164.2705 </r>
       <r>    -8.2809    29.6660   166.6037 </r>
       <r>    -8.2023    32.3427   169.1474 </r>
       <r>    -8.1236    15.2786   170.3490 </r>
       <r>    -8.0450    53.7027   174.5727 </r>
       <r>    -7.9663    41.8042   177.8606 </r>
       <r>    -7.8877    24.1203   179.7576 </r>
       <r>    -7.8090    15.2560   180.9575 </r>
       <r>    -7.7304    33.2996   183.5765 </r>
       <r>    -7.6517    45.4872   187.1540 </r>
       <r>    -7.5731    32.8934   189.7410 </r>
       <r>    -7.4944    11.9231   190.6788 </r>
       <r>    -7.4158    21.2201   192.3477 </r>
       <r>    -7.3371    22.2777   194.0998 </r>
       <r>    -7.2585    30.9333   196.5327 </r>
       <r>    -7.1798    25.4165   198.5317 </r>
       <r>    -7.1012    39.4254   201.6325 </r>
       <r>    -7.0225    39.1821   204.7141 </r>
       <r>    -6.9439    52.5185   208.8446 </r>
       <r>    -6.8652    59.8498   213.5518 </r>
       <r>    -6.7866    69.4510   219.0140 </r>
       <r>    -6.7079    59.6571   223.7060 </r>
       <r>    -6.6293    52.1789   227.8098 </r>
       <r>    -6.5506    45.3322   231.3752 </r>
       <r>    -6.4720    57.0011   235.8583 </r>
       <r>    -6.3933    44.2570   239.3390 </r>
       <r>    -6.3147    35.0943   242.0992 </r>
       <r>    -6.2360    24.6903   244.0411 </r>
       <r>    -6.1574    35.0440   246.7972 </r>
       <r>    -6.0787    50.8916   250.7998 </r>
       <r>    -6.0001    48.3278   254.6007 </r>
       <r>    -5.9214    61.2464   259.4177 </r>
       <r>    -5.8428    50.7751   263.4111 </r>
       <r>    -5.7641    45.8596   267.0180 </r>
       <r>    -5.6855    27.2615   269.1620 </r>
       <r>    -5.6068    58.1476   273.7353 </r>
       <r>    -5.5282    87.6444   280.6285 </r>
       <r>    -5.4495    68.7041   286.0320 </r>
       <r>    -5.3709    36.4547   288.8991 </r>
       <r>    -5.2922    68.2146   294.2641 </r>
       <r>    -5.2136    48.1799   298.0534 </r>
       <r>    -5.1349    37.6423   301.0140 </r>
       <r>    -5.0563    56.9896   305.4961 </r>
       <r>    -4.9776    49.9968   309.4283 </r>
       <r>    -4.8990    35.8006   312.2440 </r>
       <r>    -4.8203    18.4064   313.6917 </r>
       <r>    -4.7417    31.0719   316.1355 </r>
       <r>    -4.6630    46.0228   319.7551 </r>
       <r>    -4.5844    64.1450   324.8001 </r>
       <r>    -4.5057    38.1214   327.7983 </r>
       <r>    -4.4271    30.7291   330.2151 </r>
       <r>    -4.3484    45.1036   333.7624 </r>
       <r>    -4.2698    29.6158   336.0917 </r>
       <r>    -4.1911    40.8885   339.3075 </r>
       <r>    -4.1125    32.6224   341.8733 </r>
       <r>    -4.0338    43.0826   345.2617 </r>
       <r>    -3.9552     9.5302   346.0112 </r>
       <r>    -3.8765    11.3366   346.9028 </r>
       <r>    -3.7979    19.3586   348.4254 </r>
       <r>    -3.7193    34.8126   351.1634 </r>
       <r>    -3.6406    28.2342   353.3840 </r>
       <r>    -3.5620    22.7459   355.1729 </r>
       <r>    -3.4833    18.8388   356.6546 </r>
       <r>    -3.4047    16.4756   357.9504 </r>
       <r>    -3.3260    13.9585   359.0482 </r>
       <r>    -3.2474    54.5660   363.3397 </r>
       <r>    -3.1687    89.2271   370.3574 </r>
       <r>    -3.0901    96.3075   377.9319 </r>
       <r>    -3.0114    51.1353   381.9536 </r>
       <r>    -2.9328    17.8665   383.3588 </r>
       <r>    -2.8541    21.2962   385.0337 </r>
       <r>    -2.7755    41.5221   388.2994 </r>
       <r>    -2.6968    20.8867   389.9421 </r>
       <r>    -2.6182    29.3605   392.2513 </r>
       <r>    -2.5395    21.7109   393.9588 </r>
       <r>    -2.4609     0.5933   394.0055 </r>
       <r>    -2.3822     4.3363   394.3466 </r>
       <r>    -2.3036    18.1429   395.7735 </r>
       <r>    -2.2249    14.8222   396.9392 </r>
       <r>    -2.1463     8.1440   397.5797 </r>
       <r>    -2.0676    12.3481   398.5509 </r>
       <r>    -1.9890     4.8274   398.9306 </r>
       <r>    -1.9103    10.0404   399.7202 </r>
       <r>    -1.8317    15.2177   400.9171 </r>
       <r>    -1.7530    21.9059   402.6400 </r>
       <r>    -1.6744    14.9416   403.8151 </r>
       <r>    -1.5957    16.8919   405.1437 </r>
       <r>    -1.5171    18.2469   406.5788 </r>
       <r>    -1.4384    25.1157   408.5541 </r>
       <r>    -1.3598    31.4998   411.0315 </r>
       <r>    -1.2811    20.0901   412.6116 </r>
       <r>    -1.2025    13.7133   413.6901 </r>
       <r>    -1.1238     7.2520   414.2605 </r>
       <r>    -1.0452    25.7830   416.2883 </r>
       <r>    -0.9665    32.9305   418.8782 </r>
       <r>    -0.8879    35.1430   421.6422 </r>
       <r>    -0.8092    27.7807   423.8271 </r>
       <r>    -0.7306     2.2057   424.0006 </r>
       <r>    -0.6519     2.3280   424.1837 </r>
       <r>    -0.5733    10.8452   425.0367 </r>
       <r>    -0.4946     8.2147   425.6828 </r>
       <r>    -0.4160     8.6701   426.3647 </r>
       <r>    -0.3373    13.1337   427.3976 </r>
       <r>    -0.2587    23.9861   429.2841 </r>
       <r>    -0.1800    42.3181   432.6124 </r>
       <r>    -0.1014    52.8104   436.7659 </r>
       <r>    -0.0227    40.4322   439.9458 </r>
       <r>     0.0559    28.4972   442.1871 </r>
       <r>     0.1346    11.8146   443.1163 </r>
       <r>     0.2132    12.7272   444.1173 </r>
       <r>     0.2919    16.5962   445.4226 </r>
       <r>     0.3705    22.3459   447.1801 </r>
       <r>     0.4492    41.7716   450.4654 </r>
       <r>     0.5278    16.7693   451.7843 </r>
       <r>     0.6065    13.4956   452.8457 </r>
       <r>     0.6851     9.5819   453.5993 </r>
       <r>     0.7637    15.5712   454.8239 </r>
       <r>     0.8424    16.2079   456.0987 </r>
       <r>     0.9210    10.7342   456.9429 </r>
       <r>     0.9997    19.0976   458.4449 </r>
       <r>     1.0783    41.6684   461.7221 </r>
       <r>     1.1570    49.8680   465.6442 </r>
       <r>     1.2356    35.0410   468.4001 </r>
       <r>     1.3143    40.4367   471.5804 </r>
       <r>     1.3929    50.5291   475.5545 </r>
       <r>     1.4716    35.5356   478.3493 </r>
       <r>     1.5502    32.2085   480.8825 </r>
       <r>     1.6289    26.1208   482.9369 </r>
       <r>     1.7075    24.9783   484.9014 </r>
       <r>     1.7862    29.0466   487.1859 </r>
       <r>     1.8648    25.6281   489.2015 </r>
       <r>     1.9435    35.3143   491.9790 </r>
       <r>     2.0221    36.1512   494.8222 </r>
       <r>     2.1008    14.1636   495.9362 </r>
       <r>     2.1794     0.8101   495.9999 </r>
       <r>     2.2581     0.0012   496.0000 </r>
       <r>     2.3367     0.0000   496.0000 </r>
       <r>     2.4154     0.0000   496.0000 </r>
       <r>     2.4940     0.0000   496.0000 </r>
       <r>     2.5727     0.0000   496.0000 </r>
       <r>     2.6513     0.0000   496.0000 </r>
       <r>     2.7300     0.0000   496.0000 </r>
       <r>     2.8086     0.0000   496.0000 </r>
       <r>     2.8873     0.0000   496.0000 </r>
       <r>     2.9659     0.0000   496.0000 </r>
       <r>     3.0446     0.0000   496.0000 </r>
       <r>     3.1232     0.0000   496.0000 </r>
      </set>
     </set>
    </array>
   </total>
  </dos>
 </calculation>
 <structure name="finalpos" >
  <crystal>
   <varray name="basis" >
    <v>       9.79690419       0.00000000       0.00000000 </v>
    <v>       0.00000000      15.93614809      -1.40856980 </v>
    <v>       0.00000000       0.00000000      30.28425064 </v>
   </varray>
   <i name="volume">   4728.12608715 </i>
   <varray name="rec_basis" >
    <v>       0.10207306      -0.00000000       0.00000000 </v>
    <v>       0.00000000       0.06275042       0.00000000 </v>
    <v>      -0.00000000       0.00291862       0.03302046 </v>
   </varray>
  </crystal>
  <varray name="positions" >
   <v>       0.00000564       0.25075178       0.60455837 </v>
   <v>       0.00000000       0.20565154       0.42187500 </v>
   <v>       0.00000000       0.04940154       0.48437500 </v>
   <v>       0.00001074       0.38718446       0.54964275 </v>
   <v>       0.16666667       0.37752654       0.45312500 </v>
   <v>       0.16666667       0.22127654       0.51562500 </v>
   <v>       0.16666834       0.06577178       0.57269563 </v>
   <v>       0.16666667       0.03377654       0.39062500 </v>
   <v>       0.00000048       0.75066122       0.60455055 </v>
   <v>       0.00000000       0.70565154       0.42187500 </v>
   <v>       0.00000000       0.54940154       0.48437500 </v>
   <v>      -0.00001152       0.88719902       0.54965512 </v>
   <v>       0.16666667       0.87752654       0.45312500 </v>
   <v>       0.16666667       0.72127654       0.51562500 </v>
   <v>       0.16668476       0.56576115       0.57268952 </v>
   <v>       0.16666667       0.53377654       0.39062500 </v>
   <v>       0.33332605       0.25075911       0.60456025 </v>
   <v>       0.33333333       0.20565154       0.42187500 </v>
   <v>       0.33333333       0.04940154       0.48437500 </v>
   <v>       0.33332774       0.38717122       0.54963975 </v>
   <v>       0.50000000       0.37752654       0.45312500 </v>
   <v>       0.50000000       0.22127654       0.51562500 </v>
   <v>       0.49999692       0.06578168       0.57269675 </v>
   <v>       0.50000000       0.03377654       0.39062500 </v>
   <v>       0.33334908       0.75079535       0.60455336 </v>
   <v>       0.33333333       0.70565154       0.42187500 </v>
   <v>       0.33333333       0.54940154       0.48437500 </v>
   <v>       0.33333358       0.88721108       0.54964135 </v>
   <v>       0.50000000       0.87752654       0.45312500 </v>
   <v>       0.50000000       0.72127654       0.51562500 </v>
   <v>       0.49998306       0.56577019       0.57269669 </v>
   <v>       0.50000000       0.53377654       0.39062500 </v>
   <v>       0.66667118       0.25076658       0.60455689 </v>
   <v>       0.66666667       0.20565154       0.42187500 </v>
   <v>       0.66666667       0.04940154       0.48437500 </v>
   <v>       0.66666357       0.38716207       0.54963933 </v>
   <v>       0.83333333       0.37752654       0.45312500 </v>
   <v>       0.83333333       0.22127654       0.51562500 </v>
   <v>       0.83333672       0.06578096       0.57269879 </v>
   <v>       0.83333333       0.03377654       0.39062500 </v>
   <v>       0.66666891       0.75071090       0.60456003 </v>
   <v>       0.66666667       0.70565154       0.42187500 </v>
   <v>       0.66666667       0.54940154       0.48437500 </v>
   <v>       0.66667726       0.88720177       0.54965222 </v>
   <v>       0.83333333       0.87752654       0.45312500 </v>
   <v>       0.83333333       0.72127654       0.51562500 </v>
   <v>       0.83332558       0.56573558       0.57268372 </v>
   <v>       0.83333333       0.53377654       0.39062500 </v>
   <v>       0.16666667       0.34627654       0.51562500 </v>
   <v>       0.16667763       0.18625469       0.58503814 </v>
   <v>       0.16666667       0.15877654       0.39062500 </v>
   <v>       0.16666667       0.00252654       0.45312500 </v>
   <v>       0.00000000       0.17440154       0.48437500 </v>
   <v>       0.00000179       0.01507031       0.54912522 </v>
   <v>       0.00003137       0.36736052       0.61250632 </v>
   <v>       0.00000000       0.33065154       0.42187500 </v>
   <v>       0.16666667       0.84627654       0.51562500 </v>
   <v>       0.16671064       0.68624708       0.58503645 </v>
   <v>       0.16666667       0.65877654       0.39062500 </v>
   <v>       0.16666667       0.50252654       0.45312500 </v>
   <v>       0.00000000       0.67440154       0.48437500 </v>
   <v>       0.00000367       0.51506739       0.54910866 </v>
   <v>      -0.00003713       0.86728194       0.61251113 </v>
   <v>       0.00000000       0.83065154       0.42187500 </v>
   <v>       0.50000000       0.34627654       0.51562500 </v>
   <v>       0.49998694       0.18626148       0.58503802 </v>
   <v>       0.50000000       0.15877654       0.39062500 </v>
   <v>       0.50000000       0.00252654       0.45312500 </v>
   <v>       0.33333333       0.17440154       0.48437500 </v>
   <v>       0.33334015       0.01508072       0.54910956 </v>
   <v>       0.33330403       0.36737585       0.61250229 </v>
   <v>       0.33333333       0.33065154       0.42187500 </v>
   <v>       0.50000000       0.84627654       0.51562500 </v>
   <v>       0.49998040       0.68625515       0.58503978 </v>
   <v>       0.50000000       0.65877654       0.39062500 </v>
   <v>       0.50000000       0.50252654       0.45312500 </v>
   <v>       0.33333333       0.67440154       0.48437500 </v>
   <v>       0.33334556       0.51508076       0.54910880 </v>
   <v>       0.33332864       0.86740521       0.61247960 </v>
   <v>       0.33333333       0.83065154       0.42187500 </v>
   <v>       0.83333333       0.34627654       0.51562500 </v>
   <v>       0.83333743       0.18626085       0.58504261 </v>
   <v>       0.83333333       0.15877654       0.39062500 </v>
   <v>       0.83333333       0.00252654       0.45312500 </v>
   <v>       0.66666667       0.17440154       0.48437500 </v>
   <v>       0.66665991       0.01508766       0.54912285 </v>
   <v>       0.66666320       0.36737049       0.61250387 </v>
   <v>       0.66666667       0.33065154       0.42187500 </v>
   <v>       0.83333333       0.84627654       0.51562500 </v>
   <v>       0.83331738       0.68619964       0.58503698 </v>
   <v>       0.83333333       0.65877654       0.39062500 </v>
   <v>       0.83333333       0.50252654       0.45312500 </v>
   <v>       0.66666667       0.67440154       0.48437500 </v>
   <v>       0.66665506       0.51506998       0.54910578 </v>
   <v>       0.66670873       0.86730708       0.61252066 </v>
   <v>       0.66666667       0.83065154       0.42187500 </v>
  </varray>
  <varray name="selective"  type="logical" >
   <v type="logical" >  T  T  T </v>
   <v type="logical" >  F  F  F </v>
   <v type="logical" >  F  F  F </v>
   <v type="logical" >  T  T  T </v>
   <v type="logical" >  F  F  F </v>
   <v type="logical" >  F  F  F </v>
   <v type="logical" >  T  T  T </v>
   <v type="logical" >  F  F  F </v>
   <v type="logical" >  T  T  T </v>
   <v type="logical" >  F  F  F </v>
   <v type="logical" >  F  F  F </v>
   <v type="logical" >  T  T  T </v>
   <v type="logical" >  F  F  F </v>
   <v type="logical" >  F  F  F </v>
   <v type="logical" >  T  T  T </v>
   <v type="logical" >  F  F  F </v>
   <v type="logical" >  T  T  T </v>
   <v type="logical" >  F  F  F </v>
   <v type="logical" >  F  F  F </v>
   <v type="logical" >  T  T  T </v>
   <v type="logical" >  F  F  F </v>
   <v type="logical" >  F  F  F </v>
   <v type="logical" >  T  T  T </v>
   <v type="logical" >  F  F  F </v>
   <v type="logical" >  T  T  T </v>
   <v type="logical" >  F  F  F </v>
   <v type="logical" >  F  F  F </v>
   <v type="logical" >  T  T  T </v>
   <v type="logical" >  F  F  F </v>
   <v type="logical" >  F  F  F </v>
   <v type="logical" >  T  T  T </v>
   <v type="logical" >  F  F  F </v>
   <v type="logical" >  T  T  T </v>
   <v type="logical" >  F  F  F </v>
   <v type="logical" >  F  F  F </v>
   <v type="logical" >  T  T  T </v>
   <v type="logical" >  F  F  F </v>
   <v type="logical" >  F  F  F </v>
   <v type="logical" >  T  T  T </v>
   <v type="logical" >  F  F  F </v>
   <v type="logical" >  T  T  T </v>
   <v type="logical" >  F  F  F </v>
   <v type="logical" >  F  F  F </v>
   <v type="logical" >  T  T  T </v>
   <v type="logical" >  F  F  F </v>
   <v type="logical" >  F  F  F </v>
   <v type="logical" >  T  T  T </v>
   <v type="logical" >  F  F  F </v>
   <v type="logical" >  F  F  F </v>
   <v type="logical" >  T  T  T </v>
   <v type="logical" >  F  F  F </v>
   <v type="logical" >  F  F  F </v>
   <v type="logical" >  F  F  F </v>
   <v type="logical" >  T  T  T </v>
   <v type="logical" >  T  T  T </v>
   <v type="logical" >  F  F  F </v>
   <v type="logical" >  F  F  F </v>
   <v type="logical" >  T  T  T </v>
   <v type="logical" >  F  F  F </v>
   <v type="logical" >  F  F  F </v>
   <v type="logical" >  F  F  F </v>
   <v type="logical" >  T  T  T </v>
   <v type="logical" >  T  T  T </v>
   <v type="logical" >  F  F  F </v>
   <v type="logical" >  F  F  F </v>
   <v type="logical" >  T  T  T </v>
   <v type="logical" >  F  F  F </v>
   <v type="logical" >  F  F  F </v>
   <v type="logical" >  F  F  F </v>
   <v type="logical" >  T  T  T </v>
   <v type="logical" >  T  T  T </v>
   <v type="logical" >  F  F  F </v>
   <v type="logical" >  F  F  F </v>
   <v type="logical" >  T  T  T </v>
   <v type="logical" >  F  F  F </v>
   <v type="logical" >  F  F  F </v>
   <v type="logical" >  F  F  F </v>
   <v type="logical" >  T  T  T </v>
   <v type="logical" >  T  T  T </v>
   <v type="logical" >  F  F  F </v>
   <v type="logical" >  F  F  F </v>
   <v type="logical" >  T  T  T </v>
   <v type="logical" >  F  F  F </v>
   <v type="logical" >  F  F  F </v>
   <v type="logical" >  F  F  F </v>
   <v type="logical" >  T  T  T </v>
   <v type="logical" >  T  T  T </v>
   <v type="logical" >  F  F  F </v>
   <v type="logical" >  F  F  F </v>
   <v type="logical" >  T  T  T </v>
   <v type="logical" >  F  F  F </v>
   <v type="logical" >  F  F  F </v>
   <v type="logical" >  F  F  F </v>
   <v type="logical" >  T  T  T </v>
   <v type="logical" >  T  T  T </v>
   <v type="logical" >  F  F  F </v>
  </varray>
  <nose>
   <v>      -3.00000000       0.00000000       0.00010000       0.00010000 </v>
  </nose>
 </structure>
</modeling>
