unknown system                          
            1
     9.796904    0.000000   -0.000000
    -0.000000   15.936148   -1.408570
     0.000000    0.000000   30.284251
   Ga   N 
    48    48
Direct configuration=     1
   0.00000000  0.23690154  0.60937500
   0.00000000  0.20565154  0.42187500
   0.00000000  0.04940154  0.48437500
   0.00000000  0.39315154  0.54687500
   0.16666667  0.37752654  0.45312500
   0.16666667  0.22127654  0.51562500
   0.16666667  0.06502654  0.57812500
   0.16666667  0.03377654  0.39062500
   0.00000000  0.73690154  0.60937500
   0.00000000  0.70565154  0.42187500
   0.00000000  0.54940154  0.48437500
   0.00000000  0.89315154  0.54687500
   0.16666667  0.87752654  0.45312500
   0.16666667  0.72127654  0.51562500
   0.16666667  0.56502654  0.57812500
   0.16666667  0.53377654  0.39062500
   0.33333333  0.23690154  0.60937500
   0.33333333  0.20565154  0.42187500
   0.33333333  0.04940154  0.48437500
   0.33333333  0.39315154  0.54687500
   0.50000000  0.37752654  0.45312500
   0.50000000  0.22127654  0.51562500
   0.50000000  0.06502654  0.57812500
   0.50000000  0.03377654  0.39062500
   0.33333333  0.73690154  0.60937500
   0.33333333  0.70565154  0.42187500
   0.33333333  0.54940154  0.48437500
   0.33333333  0.89315154  0.54687500
   0.50000000  0.87752654  0.45312500
   0.50000000  0.72127654  0.51562500
   0.50000000  0.56502654  0.57812500
   0.50000000  0.53377654  0.39062500
   0.66666667  0.23690154  0.60937500
   0.66666667  0.20565154  0.42187500
   0.66666667  0.04940154  0.48437500
   0.66666667  0.39315154  0.54687500
   0.83333333  0.37752654  0.45312500
   0.83333333  0.22127654  0.51562500
   0.83333333  0.06502654  0.57812500
   0.83333333  0.03377654  0.39062500
   0.66666667  0.73690154  0.60937500
   0.66666667  0.70565154  0.42187500
   0.66666667  0.54940154  0.48437500
   0.66666667  0.89315154  0.54687500
   0.83333333  0.87752654  0.45312500
   0.83333333  0.72127654  0.51562500
   0.83333333  0.56502654  0.57812500
   0.83333333  0.53377654  0.39062500
   0.16666667  0.34627654  0.51562500
   0.16666667  0.19002654  0.57812500
   0.16666667  0.15877654  0.39062500
   0.16666667  0.00252654  0.45312500
   0.00000000  0.17440154  0.48437500
   0.00000000  0.01815154  0.54687500
   0.00000000  0.36190154  0.60937500
   0.00000000  0.33065154  0.42187500
   0.16666667  0.84627654  0.51562500
   0.16666667  0.69002654  0.57812500
   0.16666667  0.65877654  0.39062500
   0.16666667  0.50252654  0.45312500
   0.00000000  0.67440154  0.48437500
   0.00000000  0.51815154  0.54687500
   0.00000000  0.86190154  0.60937500
   0.00000000  0.83065154  0.42187500
   0.50000000  0.34627654  0.51562500
   0.50000000  0.19002654  0.57812500
   0.50000000  0.15877654  0.39062500
   0.50000000  0.00252654  0.45312500
   0.33333333  0.17440154  0.48437500
   0.33333333  0.01815154  0.54687500
   0.33333333  0.36190154  0.60937500
   0.33333333  0.33065154  0.42187500
   0.50000000  0.84627654  0.51562500
   0.50000000  0.69002654  0.57812500
   0.50000000  0.65877654  0.39062500
   0.50000000  0.50252654  0.45312500
   0.33333333  0.67440154  0.48437500
   0.33333333  0.51815154  0.54687500
   0.33333333  0.86190154  0.60937500
   0.33333333  0.83065154  0.42187500
   0.83333333  0.34627654  0.51562500
   0.83333333  0.19002654  0.57812500
   0.83333333  0.15877654  0.39062500
   0.83333333  0.00252654  0.45312500
   0.66666667  0.17440154  0.48437500
   0.66666667  0.01815154  0.54687500
   0.66666667  0.36190154  0.60937500
   0.66666667  0.33065154  0.42187500
   0.83333333  0.84627654  0.51562500
   0.83333333  0.69002654  0.57812500
   0.83333333  0.65877654  0.39062500
   0.83333333  0.50252654  0.45312500
   0.66666667  0.67440154  0.48437500
   0.66666667  0.51815154  0.54687500
   0.66666667  0.86190154  0.60937500
   0.66666667  0.83065154  0.42187500
Direct configuration=     2
   0.00000001  0.24461529  0.60746734
   0.00000000  0.20565154  0.42187500
   0.00000000  0.04940154  0.48437500
  -0.00000001  0.38953535  0.54775855
   0.16666667  0.37752654  0.45312500
   0.16666667  0.22127654  0.51562500
   0.16666668  0.06455970  0.57638995
   0.16666667  0.03377654  0.39062500
   0.00000001  0.74461530  0.60746735
   0.00000000  0.70565154  0.42187500
   0.00000000  0.54940154  0.48437500
   0.00000009  0.88953534  0.54775856
   0.16666667  0.87752654  0.45312500
   0.16666667  0.72127654  0.51562500
   0.16666669  0.56455967  0.57638994
   0.16666667  0.53377654  0.39062500
   0.33333334  0.24461543  0.60746731
   0.33333333  0.20565154  0.42187500
   0.33333333  0.04940154  0.48437500
   0.33333339  0.38953532  0.54775860
   0.50000000  0.37752654  0.45312500
   0.50000000  0.22127654  0.51562500
   0.50000000  0.06455970  0.57638997
   0.50000000  0.03377654  0.39062500
   0.33333334  0.74461521  0.60746733
   0.33333333  0.70565154  0.42187500
   0.33333333  0.54940154  0.48437500
   0.33333330  0.88953535  0.54775851
   0.50000000  0.87752654  0.45312500
   0.50000000  0.72127654  0.51562500
   0.50000000  0.56455968  0.57638996
   0.50000000  0.53377654  0.39062500
   0.66666665  0.24461544  0.60746734
   0.66666667  0.20565154  0.42187500
   0.66666667  0.04940154  0.48437500
   0.66666662  0.38953531  0.54775861
   0.83333333  0.37752654  0.45312500
   0.83333333  0.22127654  0.51562500
   0.83333331  0.06455970  0.57638992
   0.83333333  0.03377654  0.39062500
   0.66666666  0.74461532  0.60746733
   0.66666667  0.70565154  0.42187500
   0.66666667  0.54940154  0.48437500
   0.66666662  0.88953534  0.54775858
   0.83333333  0.87752654  0.45312500
   0.83333333  0.72127654  0.51562500
   0.83333331  0.56455968  0.57638993
   0.83333333  0.53377654  0.39062500
   0.16666667  0.34627654  0.51562500
   0.16666669  0.18629294  0.58089525
   0.16666667  0.15877654  0.39062500
   0.16666667  0.00252654  0.45312500
   0.00000000  0.17440154  0.48437500
  -0.00000000  0.01848629  0.54880417
   0.00000001  0.35898072  0.60978663
   0.00000000  0.33065154  0.42187500
   0.16666667  0.84627654  0.51562500
   0.16666671  0.68629299  0.58089523
   0.16666667  0.65877654  0.39062500
   0.16666667  0.50252654  0.45312500
   0.00000000  0.67440154  0.48437500
  -0.00000001  0.51848630  0.54880417
   0.00000000  0.85898080  0.60978668
   0.00000000  0.83065154  0.42187500
   0.50000000  0.34627654  0.51562500
   0.49999997  0.18629294  0.58089524
   0.50000000  0.15877654  0.39062500
   0.50000000  0.00252654  0.45312500
   0.33333333  0.17440154  0.48437500
   0.33333331  0.01848628  0.54880415
   0.33333326  0.35898081  0.60978670
   0.33333333  0.33065154  0.42187500
   0.50000000  0.84627654  0.51562500
   0.49999999  0.68629300  0.58089521
   0.50000000  0.65877654  0.39062500
   0.50000000  0.50252654  0.45312500
   0.33333333  0.67440154  0.48437500
   0.33333332  0.51848634  0.54880415
   0.33333333  0.85898084  0.60978671
   0.33333333  0.83065154  0.42187500
   0.83333333  0.34627654  0.51562500
   0.83333334  0.18629295  0.58089525
   0.83333333  0.15877654  0.39062500
   0.83333333  0.00252654  0.45312500
   0.66666667  0.17440154  0.48437500
   0.66666670  0.01848630  0.54880415
   0.66666673  0.35898070  0.60978661
   0.66666667  0.33065154  0.42187500
   0.83333333  0.84627654  0.51562500
   0.83333330  0.68629297  0.58089522
   0.83333333  0.65877654  0.39062500
   0.83333333  0.50252654  0.45312500
   0.66666667  0.67440154  0.48437500
   0.66666669  0.51848633  0.54880415
   0.66666667  0.85898092  0.60978676
   0.66666667  0.83065154  0.42187500
Direct configuration=     3
   0.00000001  0.24614732  0.60708846
   0.00000000  0.20565154  0.42187500
   0.00000000  0.04940154  0.48437500
  -0.00000001  0.38881714  0.54793403
   0.16666667  0.37752654  0.45312500
   0.16666667  0.22127654  0.51562500
   0.16666669  0.06446698  0.57604535
   0.16666667  0.03377654  0.39062500
   0.00000001  0.74614732  0.60708848
   0.00000000  0.70565154  0.42187500
   0.00000000  0.54940154  0.48437500
   0.00000011  0.88881713  0.54793404
   0.16666667  0.87752654  0.45312500
   0.16666667  0.72127654  0.51562500
   0.16666670  0.56446695  0.57604534
   0.16666667  0.53377654  0.39062500
   0.33333334  0.24614748  0.60708842
   0.33333333  0.20565154  0.42187500
   0.33333333  0.04940154  0.48437500
   0.33333340  0.38881710  0.54793409
   0.50000000  0.37752654  0.45312500
   0.50000000  0.22127654  0.51562500
   0.50000000  0.06446698  0.57604538
   0.50000000  0.03377654  0.39062500
   0.33333334  0.74614722  0.60708845
   0.33333333  0.70565154  0.42187500
   0.33333333  0.54940154  0.48437500
   0.33333329  0.88881714  0.54793398
   0.50000000  0.87752654  0.45312500
   0.50000000  0.72127654  0.51562500
   0.49999999  0.56446695  0.57604537
   0.50000000  0.53377654  0.39062500
   0.66666665  0.24614749  0.60708845
   0.66666667  0.20565154  0.42187500
   0.66666667  0.04940154  0.48437500
   0.66666661  0.38881709  0.54793410
   0.83333333  0.37752654  0.45312500
   0.83333333  0.22127654  0.51562500
   0.83333331  0.06446698  0.57604532
   0.83333333  0.03377654  0.39062500
   0.66666666  0.74614735  0.60708845
   0.66666667  0.70565154  0.42187500
   0.66666667  0.54940154  0.48437500
   0.66666661  0.88881713  0.54793407
   0.83333333  0.87752654  0.45312500
   0.83333333  0.72127654  0.51562500
   0.83333331  0.56446696  0.57604533
   0.83333333  0.53377654  0.39062500
   0.16666667  0.34627654  0.51562500
   0.16666669  0.18555141  0.58144545
   0.16666667  0.15877654  0.39062500
   0.16666667  0.00252654  0.45312500
   0.00000000  0.17440154  0.48437500
  -0.00000000  0.01855277  0.54918732
   0.00000001  0.35840062  0.60986838
   0.00000000  0.33065154  0.42187500
   0.16666667  0.84627654  0.51562500
   0.16666672  0.68555148  0.58144542
   0.16666667  0.65877654  0.39062500
   0.16666667  0.50252654  0.45312500
   0.00000000  0.67440154  0.48437500
  -0.00000001  0.51855278  0.54918733
   0.00000000  0.85840072  0.60986844
   0.00000000  0.83065154  0.42187500
   0.50000000  0.34627654  0.51562500
   0.49999996  0.18555141  0.58144544
   0.50000000  0.15877654  0.39062500
   0.50000000  0.00252654  0.45312500
   0.33333333  0.17440154  0.48437500
   0.33333330  0.01855276  0.54918730
   0.33333324  0.35840072  0.60986846
   0.33333333  0.33065154  0.42187500
   0.50000000  0.84627654  0.51562500
   0.49999999  0.68555149  0.58144540
   0.50000000  0.65877654  0.39062500
   0.50000000  0.50252654  0.45312500
   0.33333333  0.67440154  0.48437500
   0.33333332  0.51855283  0.54918729
   0.33333333  0.85840076  0.60986847
   0.33333333  0.83065154  0.42187500
   0.83333333  0.34627654  0.51562500
   0.83333335  0.18555142  0.58144545
   0.83333333  0.15877654  0.39062500
   0.83333333  0.00252654  0.45312500
   0.66666667  0.17440154  0.48437500
   0.66666670  0.01855278  0.54918730
   0.66666674  0.35840060  0.60986836
   0.66666667  0.33065154  0.42187500
   0.83333333  0.84627654  0.51562500
   0.83333330  0.68555145  0.58144542
   0.83333333  0.65877654  0.39062500
   0.83333333  0.50252654  0.45312500
   0.66666667  0.67440154  0.48437500
   0.66666669  0.51855282  0.54918730
   0.66666667  0.85840085  0.60986853
   0.66666667  0.83065154  0.42187500
Direct configuration=     4
   0.00000045  0.24599349  0.60437582
   0.00000000  0.20565154  0.42187500
   0.00000000  0.04940154  0.48437500
   0.00000146  0.38636414  0.54932213
   0.16666667  0.37752654  0.45312500
   0.16666667  0.22127654  0.51562500
   0.16666664  0.06443324  0.57424140
   0.16666667  0.03377654  0.39062500
   0.00000023  0.74599210  0.60437587
   0.00000000  0.70565154  0.42187500
   0.00000000  0.54940154  0.48437500
   0.00000054  0.88636396  0.54932148
   0.16666667  0.87752654  0.45312500
   0.16666667  0.72127654  0.51562500
   0.16666673  0.56443383  0.57424148
   0.16666667  0.53377654  0.39062500
   0.33333317  0.24598257  0.60437542
   0.33333333  0.20565154  0.42187500
   0.33333333  0.04940154  0.48437500
   0.33333310  0.38636555  0.54931880
   0.50000000  0.37752654  0.45312500
   0.50000000  0.22127654  0.51562500
   0.49999996  0.06443324  0.57424142
   0.50000000  0.03377654  0.39062500
   0.33333312  0.74599391  0.60437591
   0.33333333  0.70565154  0.42187500
   0.33333333  0.54940154  0.48437500
   0.33333300  0.88636376  0.54932192
   0.50000000  0.87752654  0.45312500
   0.50000000  0.72127654  0.51562500
   0.49999989  0.56443383  0.57424152
   0.50000000  0.53377654  0.39062500
   0.66666637  0.24600165  0.60437606
   0.66666667  0.20565154  0.42187500
   0.66666667  0.04940154  0.48437500
   0.66666545  0.38636304  0.54932474
   0.83333333  0.37752654  0.45312500
   0.83333333  0.22127654  0.51562500
   0.83333341  0.06443321  0.57424148
   0.83333333  0.03377654  0.39062500
   0.66666666  0.74600155  0.60437613
   0.66666667  0.70565154  0.42187500
   0.66666667  0.54940154  0.48437500
   0.66666647  0.88636271  0.54932444
   0.83333333  0.87752654  0.45312500
   0.83333333  0.72127654  0.51562500
   0.83333340  0.56443392  0.57424156
   0.83333333  0.53377654  0.39062500
   0.16666667  0.34627654  0.51562500
   0.16666687  0.18386213  0.58449699
   0.16666667  0.15877654  0.39062500
   0.16666667  0.00252654  0.45312500
   0.00000000  0.17440154  0.48437500
  -0.00000015  0.01630014  0.55058214
   0.00000606  0.36303291  0.61028701
   0.00000000  0.33065154  0.42187500
   0.16666667  0.84627654  0.51562500
   0.16666664  0.68386045  0.58449722
   0.16666667  0.65877654  0.39062500
   0.16666667  0.50252654  0.45312500
   0.00000000  0.67440154  0.48437500
   0.00000007  0.51629816  0.55058240
   0.00000254  0.86303353  0.61028715
   0.00000000  0.83065154  0.42187500
   0.50000000  0.34627654  0.51562500
   0.49999983  0.18386222  0.58449689
   0.50000000  0.15877654  0.39062500
   0.50000000  0.00252654  0.45312500
   0.33333333  0.17440154  0.48437500
   0.33333343  0.01630005  0.55058216
   0.33333038  0.36304136  0.61028994
   0.33333333  0.33065154  0.42187500
   0.50000000  0.84627654  0.51562500
   0.50000007  0.68386046  0.58449713
   0.50000000  0.65877654  0.39062500
   0.50000000  0.50252654  0.45312500
   0.33333333  0.67440154  0.48437500
   0.33333343  0.51629825  0.55058240
   0.33333027  0.86303170  0.61028650
   0.33333333  0.83065154  0.42187500
   0.83333333  0.34627654  0.51562500
   0.83333331  0.18386204  0.58449683
   0.83333333  0.15877654  0.39062500
   0.83333333  0.00252654  0.45312500
   0.66666667  0.17440154  0.48437500
   0.66666672  0.01630017  0.55058208
   0.66666328  0.36302919  0.61028533
   0.66666667  0.33065154  0.42187500
   0.83333333  0.84627654  0.51562500
   0.83333330  0.68386042  0.58449712
   0.83333333  0.65877654  0.39062500
   0.83333333  0.50252654  0.45312500
   0.66666667  0.67440154  0.48437500
   0.66666651  0.51629818  0.55058232
   0.66666724  0.86302806  0.61028520
   0.66666667  0.83065154  0.42187500
Direct configuration=     5
   0.00000046  0.24599181  0.60434623
   0.00000000  0.20565154  0.42187500
   0.00000000  0.04940154  0.48437500
   0.00000148  0.38633738  0.54933727
   0.16666667  0.37752654  0.45312500
   0.16666667  0.22127654  0.51562500
   0.16666664  0.06443287  0.57422172
   0.16666667  0.03377654  0.39062500
   0.00000023  0.74599040  0.60434628
   0.00000000  0.70565154  0.42187500
   0.00000000  0.54940154  0.48437500
   0.00000055  0.88633720  0.54933661
   0.16666667  0.87752654  0.45312500
   0.16666667  0.72127654  0.51562500
   0.16666673  0.56443347  0.57422181
   0.16666667  0.53377654  0.39062500
   0.33333317  0.24598077  0.60434584
   0.33333333  0.20565154  0.42187500
   0.33333333  0.04940154  0.48437500
   0.33333309  0.38633881  0.54933390
   0.50000000  0.37752654  0.45312500
   0.50000000  0.22127654  0.51562500
   0.49999996  0.06443287  0.57422175
   0.50000000  0.03377654  0.39062500
   0.33333312  0.74599224  0.60434633
   0.33333333  0.70565154  0.42187500
   0.33333333  0.54940154  0.48437500
   0.33333299  0.88633700  0.54933706
   0.50000000  0.87752654  0.45312500
   0.50000000  0.72127654  0.51562500
   0.49999988  0.56443347  0.57422184
   0.50000000  0.53377654  0.39062500
   0.66666637  0.24600006  0.60434648
   0.66666667  0.20565154  0.42187500
   0.66666667  0.04940154  0.48437500
   0.66666543  0.38633628  0.54933991
   0.83333333  0.37752654  0.45312500
   0.83333333  0.22127654  0.51562500
   0.83333341  0.06443284  0.57422181
   0.83333333  0.03377654  0.39062500
   0.66666666  0.74599996  0.60434655
   0.66666667  0.70565154  0.42187500
   0.66666667  0.54940154  0.48437500
   0.66666647  0.88633594  0.54933960
   0.83333333  0.87752654  0.45312500
   0.83333333  0.72127654  0.51562500
   0.83333340  0.56443356  0.57422188
   0.83333333  0.53377654  0.39062500
   0.16666667  0.34627654  0.51562500
   0.16666687  0.18384370  0.58453027
   0.16666667  0.15877654  0.39062500
   0.16666667  0.00252654  0.45312500
   0.00000000  0.17440154  0.48437500
  -0.00000015  0.01627557  0.55059736
   0.00000612  0.36308343  0.61029157
   0.00000000  0.33065154  0.42187500
   0.16666667  0.84627654  0.51562500
   0.16666663  0.68384200  0.58453051
   0.16666667  0.65877654  0.39062500
   0.16666667  0.50252654  0.45312500
   0.00000000  0.67440154  0.48437500
   0.00000007  0.51627357  0.55059762
   0.00000257  0.86308406  0.61029172
   0.00000000  0.83065154  0.42187500
   0.50000000  0.34627654  0.51562500
   0.49999983  0.18384380  0.58453017
   0.50000000  0.15877654  0.39062500
   0.50000000  0.00252654  0.45312500
   0.33333333  0.17440154  0.48437500
   0.33333343  0.01627548  0.55059737
   0.33333035  0.36309197  0.61029454
   0.33333333  0.33065154  0.42187500
   0.50000000  0.84627654  0.51562500
   0.50000007  0.68384201  0.58453042
   0.50000000  0.65877654  0.39062500
   0.50000000  0.50252654  0.45312500
   0.33333333  0.67440154  0.48437500
   0.33333343  0.51627366  0.55059762
   0.33333024  0.86308220  0.61029106
   0.33333333  0.83065154  0.42187500
   0.83333333  0.34627654  0.51562500
   0.83333331  0.18384362  0.58453011
   0.83333333  0.15877654  0.39062500
   0.83333333  0.00252654  0.45312500
   0.66666667  0.17440154  0.48437500
   0.66666672  0.01627561  0.55059729
   0.66666324  0.36307967  0.61028988
   0.66666667  0.33065154  0.42187500
   0.83333333  0.84627654  0.51562500
   0.83333330  0.68384198  0.58453040
   0.83333333  0.65877654  0.39062500
   0.83333333  0.50252654  0.45312500
   0.66666667  0.67440154  0.48437500
   0.66666651  0.51627358  0.55059753
   0.66666724  0.86307853  0.61028974
   0.66666667  0.83065154  0.42187500
Direct configuration=     6
  -0.00000045  0.24750280  0.60363162
   0.00000000  0.20565154  0.42187500
   0.00000000  0.04940154  0.48437500
   0.00000091  0.38659873  0.54923029
   0.16666667  0.37752654  0.45312500
   0.16666667  0.22127654  0.51562500
   0.16666613  0.06379271  0.57356265
   0.16666667  0.03377654  0.39062500
  -0.00000016  0.74750183  0.60363157
   0.00000000  0.70565154  0.42187500
   0.00000000  0.54940154  0.48437500
   0.00000038  0.88659828  0.54924060
   0.16666667  0.87752654  0.45312500
   0.16666667  0.72127654  0.51562500
   0.16666679  0.56379191  0.57356261
   0.16666667  0.53377654  0.39062500
   0.33333350  0.24750744  0.60363237
   0.33333333  0.20565154  0.42187500
   0.33333333  0.04940154  0.48437500
   0.33333313  0.38659845  0.54924051
   0.50000000  0.37752654  0.45312500
   0.50000000  0.22127654  0.51562500
   0.50000106  0.06379333  0.57356273
   0.50000000  0.03377654  0.39062500
   0.33333359  0.74750064  0.60363138
   0.33333333  0.70565154  0.42187500
   0.33333333  0.54940154  0.48437500
   0.33333309  0.88659853  0.54922991
   0.50000000  0.87752654  0.45312500
   0.50000000  0.72127654  0.51562500
   0.50000052  0.56379254  0.57356272
   0.50000000  0.53377654  0.39062500
   0.66666695  0.24750159  0.60363121
   0.66666667  0.20565154  0.42187500
   0.66666667  0.04940154  0.48437500
   0.66666597  0.38659890  0.54923071
   0.83333333  0.37752654  0.45312500
   0.83333333  0.22127654  0.51562500
   0.83333283  0.06379384  0.57356297
   0.83333333  0.03377654  0.39062500
   0.66666659  0.74749945  0.60363102
   0.66666667  0.70565154  0.42187500
   0.66666667  0.54940154  0.48437500
   0.66666654  0.88659867  0.54923055
   0.83333333  0.87752654  0.45312500
   0.83333333  0.72127654  0.51562500
   0.83333271  0.56379241  0.57356262
   0.83333333  0.53377654  0.39062500
   0.16666667  0.34627654  0.51562500
   0.16666434  0.18415893  0.58548785
   0.16666667  0.15877654  0.39062500
   0.16666667  0.00252654  0.45312500
   0.00000000  0.17440154  0.48437500
   0.00000033  0.01429348  0.55026392
   0.00000842  0.36350490  0.61139470
   0.00000000  0.33065154  0.42187500
   0.16666667  0.84627654  0.51562500
   0.16666711  0.68416084  0.58548872
   0.16666667  0.65877654  0.39062500
   0.16666667  0.50252654  0.45312500
   0.00000000  0.67440154  0.48437500
   0.00000021  0.51429262  0.55026426
   0.00000375  0.86350434  0.61139434
   0.00000000  0.83065154  0.42187500
   0.50000000  0.34627654  0.51562500
   0.50000413  0.18416032  0.58548805
   0.50000000  0.15877654  0.39062500
   0.50000000  0.00252654  0.45312500
   0.33333333  0.17440154  0.48437500
   0.33333319  0.01429336  0.55026406
   0.33332914  0.36349941  0.61139422
   0.33333333  0.33065154  0.42187500
   0.50000000  0.84627654  0.51562500
   0.50000161  0.68416243  0.58548899
   0.50000000  0.65877654  0.39062500
   0.50000000  0.50252654  0.45312500
   0.33333333  0.67440154  0.48437500
   0.33333315  0.51429329  0.55026392
   0.33332909  0.86350510  0.61139425
   0.33333333  0.83065154  0.42187500
   0.83333333  0.34627654  0.51562500
   0.83333152  0.18416204  0.58548845
   0.83333333  0.15877654  0.39062500
   0.83333333  0.00252654  0.45312500
   0.66666667  0.17440154  0.48437500
   0.66666649  0.01429296  0.55026410
   0.66666203  0.36350966  0.61139559
   0.66666667  0.33065154  0.42187500
   0.83333333  0.84627654  0.51562500
   0.83333129  0.68416221  0.58548892
   0.83333333  0.65877654  0.39062500
   0.83333333  0.50252654  0.45312500
   0.66666667  0.67440154  0.48437500
   0.66666665  0.51429223  0.55026435
   0.66666723  0.86350959  0.61139521
   0.66666667  0.83065154  0.42187500
Direct configuration=     7
  -0.00000046  0.24751879  0.60362406
   0.00000000  0.20565154  0.42187500
   0.00000000  0.04940154  0.48437500
   0.00000091  0.38660149  0.54922916
   0.16666667  0.37752654  0.45312500
   0.16666667  0.22127654  0.51562500
   0.16666612  0.06378594  0.57355568
   0.16666667  0.03377654  0.39062500
  -0.00000016  0.74751782  0.60362401
   0.00000000  0.70565154  0.42187500
   0.00000000  0.54940154  0.48437500
   0.00000038  0.88660105  0.54923959
   0.16666667  0.87752654  0.45312500
   0.16666667  0.72127654  0.51562500
   0.16666679  0.56378513  0.57355564
   0.16666667  0.53377654  0.39062500
   0.33333351  0.24752359  0.60362482
   0.33333333  0.20565154  0.42187500
   0.33333333  0.04940154  0.48437500
   0.33333313  0.38660120  0.54923952
   0.50000000  0.37752654  0.45312500
   0.50000000  0.22127654  0.51562500
   0.50000107  0.06378657  0.57355576
   0.50000000  0.03377654  0.39062500
   0.33333359  0.74751659  0.60362382
   0.33333333  0.70565154  0.42187500
   0.33333333  0.54940154  0.48437500
   0.33333309  0.88660129  0.54922878
   0.50000000  0.87752654  0.45312500
   0.50000000  0.72127654  0.51562500
   0.50000052  0.56378576  0.57355575
   0.50000000  0.53377654  0.39062500
   0.66666696  0.24751748  0.60362364
   0.66666667  0.20565154  0.42187500
   0.66666667  0.04940154  0.48437500
   0.66666597  0.38660168  0.54922956
   0.83333333  0.37752654  0.45312500
   0.83333333  0.22127654  0.51562500
   0.83333282  0.06378708  0.57355600
   0.83333333  0.03377654  0.39062500
   0.66666659  0.74751531  0.60362345
   0.66666667  0.70565154  0.42187500
   0.66666667  0.54940154  0.48437500
   0.66666654  0.88660145  0.54922940
   0.83333333  0.87752654  0.45312500
   0.83333333  0.72127654  0.51562500
   0.83333271  0.56378563  0.57355565
   0.83333333  0.53377654  0.39062500
   0.16666667  0.34627654  0.51562500
   0.16666431  0.18416226  0.58549798
   0.16666667  0.15877654  0.39062500
   0.16666667  0.00252654  0.45312500
   0.00000000  0.17440154  0.48437500
   0.00000033  0.01427251  0.55026039
   0.00000845  0.36350936  0.61140637
   0.00000000  0.33065154  0.42187500
   0.16666667  0.84627654  0.51562500
   0.16666711  0.68416421  0.58549886
   0.16666667  0.65877654  0.39062500
   0.16666667  0.50252654  0.45312500
   0.00000000  0.67440154  0.48437500
   0.00000022  0.51427166  0.55026074
   0.00000376  0.86350878  0.61140600
   0.00000000  0.83065154  0.42187500
   0.50000000  0.34627654  0.51562500
   0.50000418  0.18416367  0.58549818
   0.50000000  0.15877654  0.39062500
   0.50000000  0.00252654  0.45312500
   0.33333333  0.17440154  0.48437500
   0.33333318  0.01427239  0.55026053
   0.33332913  0.36350372  0.61140586
   0.33333333  0.33065154  0.42187500
   0.50000000  0.84627654  0.51562500
   0.50000163  0.68416582  0.58549913
   0.50000000  0.65877654  0.39062500
   0.50000000  0.50252654  0.45312500
   0.33333333  0.67440154  0.48437500
   0.33333315  0.51427234  0.55026039
   0.33332907  0.86350957  0.61140592
   0.33333333  0.83065154  0.42187500
   0.83333333  0.34627654  0.51562500
   0.83333150  0.18416540  0.58549859
   0.83333333  0.15877654  0.39062500
   0.83333333  0.00252654  0.45312500
   0.66666667  0.17440154  0.48437500
   0.66666649  0.01427198  0.55026057
   0.66666201  0.36351421  0.61140729
   0.66666667  0.33065154  0.42187500
   0.83333333  0.84627654  0.51562500
   0.83333127  0.68416560  0.58549906
   0.83333333  0.65877654  0.39062500
   0.83333333  0.50252654  0.45312500
   0.66666667  0.67440154  0.48437500
   0.66666665  0.51427127  0.55026083
   0.66666723  0.86351415  0.61140690
   0.66666667  0.83065154  0.42187500
Direct configuration=     8
  -0.00000018  0.24795932  0.60372536
   0.00000000  0.20565154  0.42187500
   0.00000000  0.04940154  0.48437500
   0.00000070  0.38659494  0.54949826
   0.16666667  0.37752654  0.45312500
   0.16666667  0.22127654  0.51562500
   0.16666688  0.06394178  0.57340978
   0.16666667  0.03377654  0.39062500
   0.00000006  0.74795548  0.60372537
   0.00000000  0.70565154  0.42187500
   0.00000000  0.54940154  0.48437500
   0.00000007  0.88659668  0.54950288
   0.16666667  0.87752654  0.45312500
   0.16666667  0.72127654  0.51562500
   0.16666629  0.56394199  0.57340997
   0.16666667  0.53377654  0.39062500
   0.33333328  0.24795501  0.60372524
   0.33333333  0.20565154  0.42187500
   0.33333333  0.04940154  0.48437500
   0.33333322  0.38659533  0.54950465
   0.50000000  0.37752654  0.45312500
   0.50000000  0.22127654  0.51562500
   0.50000011  0.06394225  0.57340984
   0.50000000  0.03377654  0.39062500
   0.33333357  0.74795659  0.60372521
   0.33333333  0.70565154  0.42187500
   0.33333333  0.54940154  0.48437500
   0.33333286  0.88659611  0.54949684
   0.50000000  0.87752654  0.45312500
   0.50000000  0.72127654  0.51562500
   0.50000058  0.56394288  0.57341001
   0.50000000  0.53377654  0.39062500
   0.66666692  0.24796333  0.60372565
   0.66666667  0.20565154  0.42187500
   0.66666667  0.04940154  0.48437500
   0.66666608  0.38659525  0.54949822
   0.83333333  0.37752654  0.45312500
   0.83333333  0.22127654  0.51562500
   0.83333301  0.06394339  0.57340997
   0.83333333  0.03377654  0.39062500
   0.66666638  0.74796046  0.60372553
   0.66666667  0.70565154  0.42187500
   0.66666667  0.54940154  0.48437500
   0.66666707  0.88659628  0.54949701
   0.83333333  0.87752654  0.45312500
   0.83333333  0.72127654  0.51562500
   0.83333314  0.56394223  0.57340998
   0.83333333  0.53377654  0.39062500
   0.16666667  0.34627654  0.51562500
   0.16666791  0.18376767  0.58542692
   0.16666667  0.15877654  0.39062500
   0.16666667  0.00252654  0.45312500
   0.00000000  0.17440154  0.48437500
  -0.00000126  0.01378807  0.54964854
   0.00000735  0.36429572  0.61177098
   0.00000000  0.33065154  0.42187500
   0.16666667  0.84627654  0.51562500
   0.16666596  0.68376616  0.58542693
   0.16666667  0.65877654  0.39062500
   0.16666667  0.50252654  0.45312500
   0.00000000  0.67440154  0.48437500
  -0.00000056  0.51378954  0.54964809
   0.00000383  0.86429447  0.61177734
   0.00000000  0.83065154  0.42187500
   0.50000000  0.34627654  0.51562500
   0.49999898  0.18376806  0.58542691
   0.50000000  0.15877654  0.39062500
   0.50000000  0.00252654  0.45312500
   0.33333333  0.17440154  0.48437500
   0.33333403  0.01378881  0.54964813
   0.33332926  0.36429599  0.61177585
   0.33333333  0.33065154  0.42187500
   0.50000000  0.84627654  0.51562500
   0.50000020  0.68376618  0.58542675
   0.50000000  0.65877654  0.39062500
   0.50000000  0.50252654  0.45312500
   0.33333333  0.67440154  0.48437500
   0.33333397  0.51378874  0.54964847
   0.33332968  0.86429624  0.61177159
   0.33333333  0.83065154  0.42187500
   0.83333333  0.34627654  0.51562500
   0.83333310  0.18376766  0.58542677
   0.83333333  0.15877654  0.39062500
   0.83333333  0.00252654  0.45312500
   0.66666667  0.17440154  0.48437500
   0.66666724  0.01378868  0.54964801
   0.66666312  0.36429526  0.61177179
   0.66666667  0.33065154  0.42187500
   0.83333333  0.84627654  0.51562500
   0.83333386  0.68376651  0.58542691
   0.83333333  0.65877654  0.39062500
   0.83333333  0.50252654  0.45312500
   0.66666667  0.67440154  0.48437500
   0.66666661  0.51378954  0.54964802
   0.66666655  0.86429548  0.61177238
   0.66666667  0.83065154  0.42187500
Direct configuration=     9
  -0.00000006  0.24813522  0.60376581
   0.00000000  0.20565154  0.42187500
   0.00000000  0.04940154  0.48437500
   0.00000062  0.38659233  0.54960571
   0.16666667  0.37752654  0.45312500
   0.16666667  0.22127654  0.51562500
   0.16666718  0.06400400  0.57335153
   0.16666667  0.03377654  0.39062500
   0.00000015  0.74813023  0.60376585