  60  60   0   0
  0.6388368E+02  0.8153650E-09  0.1289205E-08  0.3994456E-08  0.5000000E-15
   1.0000000000000000E-004
  CAR 
 unknown system                          
      2.29690419    -17.52076639  301     -1.81787173      1.00000000
    -17.521  0.0000E+00  0.0000E+00
    -17.455  0.0000E+00  0.0000E+00
    -17.389  0.0000E+00  0.0000E+00
    -17.323  0.0000E+00  0.0000E+00
    -17.257  0.0000E+00  0.0000E+00
    -17.190  0.0000E+00  0.0000E+00
    -17.124  0.0000E+00  0.0000E+00
    -17.058  0.0000E+00  0.0000E+00
    -16.992  0.0000E+00  0.0000E+00
    -16.926  0.0000E+00  0.0000E+00
    -16.860  0.5493E-14  0.3628E-15
    -16.794  0.4238E-09  0.2800E-10
    -16.728  0.1126E-05  0.7442E-07
    -16.662  0.1179E-03  0.7863E-05
    -16.596  0.8276E-03  0.6253E-04
    -16.530  0.2815E-02  0.2485E-03
    -16.464  0.3059E-02  0.4506E-03
    -16.398  0.1432E-02  0.5451E-03
    -16.332  0.2260E-02  0.6944E-03
    -16.266  0.4287E-02  0.9776E-03
    -16.200  0.3261E-02  0.1193E-02
    -16.134  0.1463E-02  0.1290E-02
    -16.067  0.2392E-02  0.1448E-02
    -16.001  0.1422E-02  0.1542E-02
    -15.935  0.2629E-02  0.1715E-02
    -15.869  0.5054E-02  0.2049E-02
    -15.803  0.2839E-02  0.2237E-02
    -15.737  0.2548E-02  0.2405E-02
    -15.671  0.5295E-02  0.2755E-02
    -15.605  0.5766E-02  0.3136E-02
    -15.539  0.4159E-02  0.3411E-02
    -15.473  0.4443E-02  0.3704E-02
    -15.407  0.6327E-02  0.4122E-02
    -15.341  0.4599E-02  0.4426E-02
    -15.275  0.5951E-02  0.4819E-02
    -15.209  0.7787E-02  0.5333E-02
    -15.143  0.4849E-02  0.5654E-02
    -15.077  0.3331E-02  0.5874E-02
    -15.011  0.7033E-02  0.6338E-02
    -14.944  0.5568E-02  0.6706E-02
    -14.878  0.6028E-02  0.7104E-02
    -14.812  0.6406E-02  0.7527E-02
    -14.746  0.8888E-02  0.8115E-02
    -14.680  0.5724E-02  0.8493E-02
    -14.614  0.8226E-02  0.9036E-02
    -14.548  0.8062E-02  0.9569E-02
    -14.482  0.1053E-01  0.1026E-01
    -14.416  0.8745E-02  0.1084E-01
    -14.350  0.5414E-02  0.1120E-01
    -14.284  0.6631E-02  0.1164E-01
    -14.218  0.6940E-02  0.1210E-01
    -14.152  0.1201E-01  0.1289E-01
    -14.086  0.7659E-02  0.1340E-01
    -14.020  0.3566E-02  0.1363E-01
    -13.954  0.6423E-02  0.1406E-01
    -13.888  0.9924E-02  0.1471E-01
    -13.821  0.5562E-02  0.1508E-01
    -13.755  0.8454E-02  0.1564E-01
    -13.689  0.1101E-01  0.1636E-01
    -13.623  0.6918E-02  0.1682E-01
    -13.557  0.6978E-02  0.1728E-01
    -13.491  0.9295E-02  0.1790E-01
    -13.425  0.1565E-02  0.1800E-01
    -13.359  0.1680E-04  0.1800E-01
    -13.293  0.9325E-08  0.1800E-01
    -13.227  0.2402E-05  0.1800E-01
    -13.161  0.2465E-03  0.1802E-01
    -13.095  0.1673E-02  0.1813E-01
    -13.029  0.3135E-02  0.1833E-01
    -12.963  0.5318E-02  0.1869E-01
    -12.897  0.8669E-02  0.1926E-01
    -12.831  0.9425E-02  0.1988E-01
    -12.765  0.7827E-02  0.2040E-01
    -12.698  0.7335E-02  0.2088E-01
    -12.632  0.7499E-02  0.2138E-01
    -12.566  0.8952E-02  0.2197E-01
    -12.500  0.1050E-01  0.2266E-01
    -12.434  0.9802E-02  0.2331E-01
    -12.368  0.1161E-01  0.2408E-01
    -12.302  0.1136E-01  0.2483E-01
    -12.236  0.8574E-02  0.2539E-01
    -12.170  0.9664E-02  0.2603E-01
    -12.104  0.1113E-01  0.2677E-01
    -12.038  0.1239E-01  0.2759E-01
    -11.972  0.9420E-02  0.2821E-01
    -11.906  0.1015E-01  0.2888E-01
    -11.840  0.9225E-02  0.2949E-01
    -11.774  0.1070E-01  0.3019E-01
    -11.708  0.1379E-01  0.3111E-01
    -11.642  0.1148E-01  0.3186E-01
    -11.575  0.1046E-01  0.3256E-01
    -11.509  0.8624E-02  0.3312E-01
    -11.443  0.9108E-02  0.3373E-01
    -11.377  0.5618E-02  0.3410E-01
    -11.311  0.5733E-02  0.3448E-01
    -11.245  0.6247E-02  0.3489E-01
    -11.179  0.2281E-02  0.3504E-01
    -11.113  0.2879E-02  0.3523E-01
    -11.047  0.4698E-02  0.3554E-01
    -10.981  0.7465E-02  0.3603E-01
    -10.915  0.9534E-02  0.3666E-01
    -10.849  0.6821E-02  0.3711E-01
    -10.783  0.6437E-02  0.3754E-01
    -10.717  0.7503E-02  0.3803E-01
    -10.651  0.8280E-02  0.3858E-01
    -10.585  0.5748E-02  0.3896E-01
    -10.519  0.5905E-03  0.3900E-01
    -10.452  0.7189E-03  0.3905E-01
    -10.386  0.4446E-02  0.3934E-01
    -10.320  0.6722E-02  0.3979E-01
    -10.254  0.3061E-02  0.3999E-01
    -10.188  0.3491E-03  0.4001E-01
    -10.122  0.1964E-02  0.4014E-01
    -10.056  0.4102E-02  0.4041E-01
     -9.990  0.3832E-02  0.4066E-01
     -9.924  0.3461E-02  0.4089E-01
     -9.858  0.2154E-02  0.4104E-01
     -9.792  0.3603E-02  0.4127E-01
     -9.726  0.7386E-02  0.4176E-01
     -9.660  0.9578E-02  0.4239E-01
     -9.594  0.7364E-02  0.4288E-01
     -9.528  0.7269E-02  0.4336E-01
     -9.462  0.8343E-02  0.4391E-01
     -9.396  0.9275E-02  0.4452E-01
     -9.329  0.1216E-01  0.4533E-01
     -9.263  0.9479E-02  0.4595E-01
     -9.197  0.1358E-01  0.4685E-01
     -9.131  0.1110E-01  0.4758E-01
     -9.065  0.1108E-01  0.4832E-01
     -8.999  0.1233E-01  0.4913E-01
     -8.933  0.9717E-02  0.4977E-01
     -8.867  0.8334E-02  0.5032E-01
     -8.801  0.1126E-01  0.5107E-01
     -8.735  0.9740E-02  0.5171E-01
     -8.669  0.9424E-02  0.5233E-01
     -8.603  0.9294E-02  0.5295E-01
     -8.537  0.1195E-01  0.5374E-01
     -8.471  0.9237E-02  0.5435E-01
     -8.405  0.6438E-02  0.5477E-01
     -8.339  0.8613E-02  0.5534E-01
     -8.273  0.1128E-01  0.5609E-01
     -8.206  0.1032E-01  0.5677E-01
     -8.140  0.4198E-02  0.5704E-01
     -8.074  0.6951E-02  0.5750E-01
     -8.008  0.7785E-02  0.5802E-01
     -7.942  0.7294E-02  0.5850E-01
     -7.876  0.1039E-01  0.5919E-01
     -7.810  0.3167E-02  0.5940E-01
     -7.744  0.1084E-02  0.5947E-01
     -7.678  0.3487E-02  0.5970E-01
     -7.612  0.3638E-02  0.5994E-01
     -7.546  0.3078E-02  0.6014E-01
     -7.480  0.5835E-02  0.6053E-01
     -7.414  0.9401E-02  0.6115E-01
     -7.348  0.8624E-02  0.6172E-01
     -7.282  0.8762E-02  0.6230E-01
     -7.216  0.1389E-01  0.6321E-01
     -7.150  0.1048E-01  0.6391E-01
     -7.083  0.1274E-01  0.6475E-01
     -7.017  0.1272E-01  0.6559E-01
     -6.951  0.1338E-01  0.6647E-01
     -6.885  0.1412E-01  0.6740E-01
     -6.819  0.1200E-01  0.6820E-01
     -6.753  0.1388E-01  0.6911E-01
     -6.687  0.1380E-01  0.7003E-01
     -6.621  0.1262E-01  0.7086E-01
     -6.555  0.1266E-01  0.7170E-01
     -6.489  0.1422E-01  0.7264E-01
     -6.423  0.1196E-01  0.7343E-01
     -6.357  0.8590E-02  0.7399E-01
     -6.291  0.1097E-01  0.7472E-01
     -6.225  0.1427E-01  0.7566E-01
     -6.159  0.1106E-01  0.7639E-01
     -6.093  0.1239E-01  0.7721E-01
     -6.027  0.1484E-01  0.7819E-01
     -5.960  0.1496E-01  0.7918E-01
     -5.894  0.1467E-01  0.8015E-01
     -5.828  0.1535E-01  0.8116E-01
     -5.762  0.1502E-01  0.8215E-01
     -5.696  0.1389E-01  0.8307E-01
     -5.630  0.1529E-01  0.8408E-01
     -5.564  0.1692E-01  0.8520E-01
     -5.498  0.1526E-01  0.8621E-01
     -5.432  0.1632E-01  0.8729E-01
     -5.366  0.1706E-01  0.8841E-01
     -5.300  0.1825E-01  0.8962E-01
     -5.234  0.1639E-01  0.9070E-01
     -5.168  0.1785E-01  0.9188E-01
     -5.102  0.1671E-01  0.9298E-01
     -5.036  0.1422E-01  0.9392E-01
     -4.970  0.1511E-01  0.9492E-01
     -4.904  0.1584E-01  0.9597E-01
     -4.837  0.1636E-01  0.9705E-01
     -4.771  0.1533E-01  0.9806E-01
     -4.705  0.1544E-01  0.9908E-01
     -4.639  0.1461E-01  0.1000E+00
     -4.573  0.1583E-01  0.1011E+00
     -4.507  0.1602E-01  0.1021E+00
     -4.441  0.1394E-01  0.1031E+00
     -4.375  0.1817E-01  0.1043E+00
     -4.309  0.1688E-01  0.1054E+00
     -4.243  0.1518E-01  0.1064E+00
     -4.177  0.1569E-01  0.1074E+00
     -4.111  0.1573E-01  0.1085E+00
     -4.045  0.1516E-01  0.1095E+00
     -3.979  0.1344E-01  0.1104E+00
     -3.913  0.1356E-01  0.1112E+00
     -3.847  0.1291E-01  0.1121E+00
     -3.781  0.1161E-01  0.1129E+00
     -3.714  0.1326E-01  0.1137E+00
     -3.648  0.1482E-01  0.1147E+00
     -3.582  0.1493E-01  0.1157E+00
     -3.516  0.1441E-01  0.1167E+00
     -3.450  0.1670E-01  0.1178E+00
     -3.384  0.1544E-01  0.1188E+00
     -3.318  0.1484E-01  0.1198E+00
     -3.252  0.1644E-01  0.1209E+00
     -3.186  0.1482E-01  0.1218E+00
     -3.120  0.1361E-01  0.1227E+00
     -3.054  0.1485E-01  0.1237E+00
     -2.988  0.1637E-01  0.1248E+00
     -2.922  0.1641E-01  0.1259E+00
     -2.856  0.1350E-01  0.1268E+00
     -2.790  0.1122E-01  0.1275E+00
     -2.724  0.1229E-01  0.1283E+00
     -2.658  0.1683E-01  0.1294E+00
     -2.591  0.1825E-01  0.1306E+00
     -2.525  0.1707E-01  0.1318E+00
     -2.459  0.1340E-01  0.1326E+00
     -2.393  0.1057E-01  0.1333E+00
     -2.327  0.1359E-01  0.1342E+00
     -2.261  0.1611E-01  0.1353E+00
     -2.195  0.1228E-01  0.1361E+00
     -2.129  0.1124E-01  0.1369E+00
     -2.063  0.9414E-02  0.1375E+00
     -1.997  0.1085E-01  0.1382E+00
     -1.931  0.1044E-01  0.1389E+00
     -1.865  0.9986E-02  0.1396E+00
     -1.799  0.8524E-02  0.1401E+00
     -1.733  0.4170E-02  0.1404E+00
     -1.667  0.8204E-02  0.1409E+00
     -1.601  0.6886E-02  0.1414E+00
     -1.535  0.6327E-02  0.1418E+00
     -1.468  0.5476E-02  0.1422E+00
     -1.402  0.3365E-02  0.1424E+00
     -1.336  0.6350E-02  0.1428E+00
     -1.270  0.7189E-02  0.1433E+00
     -1.204  0.1150E-01  0.1440E+00
     -1.138  0.8866E-02  0.1446E+00
     -1.072  0.8725E-02  0.1452E+00
     -1.006  0.5911E-02  0.1456E+00
     -0.940  0.7863E-02  0.1461E+00
     -0.874  0.1108E-01  0.1468E+00
     -0.808  0.8386E-02  0.1474E+00
     -0.742  0.8326E-02  0.1480E+00
     -0.676  0.8791E-02  0.1485E+00
     -0.610  0.8314E-02  0.1491E+00
     -0.544  0.9551E-02  0.1497E+00
     -0.478  0.8985E-02  0.1503E+00
     -0.412  0.8702E-02  0.1509E+00
     -0.345  0.8321E-02  0.1514E+00
     -0.279  0.1120E-01  0.1522E+00
     -0.213  0.1187E-01  0.1530E+00
     -0.147  0.1105E-01  0.1537E+00
     -0.081  0.1549E-01  0.1547E+00
     -0.015  0.1235E-01  0.1555E+00
      0.051  0.1385E-01  0.1564E+00
      0.117  0.1599E-01  0.1575E+00
      0.183  0.1445E-01  0.1584E+00
      0.249  0.1504E-01  0.1594E+00
      0.315  0.1795E-01  0.1606E+00
      0.381  0.1739E-01  0.1618E+00
      0.447  0.1392E-01  0.1627E+00
      0.513  0.1569E-01  0.1637E+00
      0.579  0.1588E-01  0.1648E+00
      0.645  0.1588E-01  0.1658E+00
      0.711  0.1565E-01  0.1669E+00
      0.778  0.1511E-01  0.1679E+00
      0.844  0.1672E-01  0.1690E+00
      0.910  0.1595E-01  0.1700E+00
      0.976  0.1414E-01  0.1710E+00
      1.042  0.1537E-01  0.1720E+00
      1.108  0.1318E-01  0.1728E+00
      1.174  0.1599E-01  0.1739E+00
      1.240  0.1520E-01  0.1749E+00
      1.306  0.9829E-02  0.1756E+00
      1.372  0.4712E-02  0.1759E+00
      1.438  0.1852E-02  0.1760E+00
      1.504  0.2413E-03  0.1760E+00
      1.570  0.2256E-05  0.1760E+00
      1.636  0.8477E-09  0.1760E+00
      1.702  0.1099E-13  0.1760E+00
      1.768  0.0000E+00  0.1760E+00
      1.834  0.0000E+00  0.1760E+00
      1.901  0.0000E+00  0.1760E+00
      1.967  0.0000E+00  0.1760E+00
      2.033  0.0000E+00  0.1760E+00
      2.099  0.0000E+00  0.1760E+00
      2.165  0.0000E+00  0.1760E+00
      2.231  0.0000E+00  0.1760E+00
      2.297  0.0000E+00  0.1760E+00
