 running on   32 total cores
 distrk:  each k-point on   32 cores,    1 groups
 distr:  one band on    4 cores,    8 groups
 using from now: INCAR     
 vasp.6.1.2 22Jul20 (build Jun  1 2021 15:15:33) complex                         
 POSCAR found type information on POSCAR SiP 
 POSCAR found :  2 types and      60 ions
 scaLAPACK will be used
 -----------------------------------------------------------------------------
|                                                                             |
|               ----> ADVICE to this user running VASP <----                  |
|                                                                             |
|     You enforced a specific xc type in the INCAR file but a different       |
|     type was found in the POTCAR file.                                      |
|     I HOPE YOU KNOW WHAT YOU ARE DOING!                                     |
|                                                                             |
 -----------------------------------------------------------------------------

 LDA part: xc-table for Pade appr. of Perdew
 POSCAR, INCAR and KPOINTS ok, starting setup
 FFT: planning ...
 WAVECAR not read
 augmentation electrons    279.9884886228969     
 soft         electrons    0.000000000000000     
 total        electrons    279.9884886228969     
 augmentation electrons    597.7730699053112     
 soft         electrons    0.000000000000000     
 total        electrons    597.7730699053112     
 entering main loop
       N       E                     dE             d eps       ncg     rms          rms(c)
DAV:   1     0.175107828744E+04    0.17511E+04   -0.75054E+04  2928   0.850E+02
DAV:   2    -0.536540918506E+02   -0.18047E+04   -0.17552E+04  4000   0.201E+02
DAV:   3    -0.286958067474E+03   -0.23330E+03   -0.22948E+03  3280   0.748E+01
DAV:   4    -0.297402284158E+03   -0.10444E+02   -0.10330E+02  3960   0.174E+01
DAV:   5    -0.297781901642E+03   -0.37962E+00   -0.37898E+00  4016   0.309E+00    0.357E+01
DAV:   6    -0.296176750313E+03    0.16052E+01   -0.14288E+01  3680   0.625E+00    0.218E+01
DAV:   7    -0.351378669196E+03   -0.55202E+02   -0.17364E+02  4472   0.341E+01    0.224E+01
DAV:   8    -0.293801082083E+03    0.57578E+02   -0.13043E+02  4832   0.286E+01    0.682E+00
DAV:   9    -0.294639318219E+03   -0.83824E+00   -0.26010E+01  3424   0.647E+00    0.414E+00
DAV:  10    -0.294470218024E+03    0.16910E+00   -0.26634E+00  3384   0.319E+00    0.302E+00
DAV:  11    -0.294410794390E+03    0.59424E-01   -0.56666E-01  3520   0.125E+00    0.227E+00
DAV:  12    -0.294386405103E+03    0.24389E-01   -0.93794E-02  3504   0.511E-01    0.183E+00
DAV:  13    -0.294378609627E+03    0.77955E-02   -0.54051E-02  3512   0.304E-01    0.145E+00
DAV:  14    -0.294360043645E+03    0.18566E-01   -0.19749E-01  3568   0.521E-01    0.832E-01
DAV:  15    -0.294343702757E+03    0.16341E-01   -0.10344E-01  3600   0.442E-01    0.630E-01
DAV:  16    -0.294343567481E+03    0.13528E-03   -0.15705E-02  3248   0.207E-01    0.463E-01
DAV:  17    -0.294343002279E+03    0.56520E-03   -0.17678E-03  3456   0.755E-02    0.336E-01
DAV:  18    -0.294342147781E+03    0.85450E-03   -0.81619E-04  2824   0.445E-02    0.188E-01
DAV:  19    -0.294341642247E+03    0.50553E-03   -0.12071E-03  3264   0.586E-02    0.722E-02
DAV:  20    -0.294341795493E+03   -0.15325E-03   -0.35975E-04  2080   0.330E-02    0.875E-02
DAV:  21    -0.294341989416E+03   -0.19392E-03   -0.74690E-05  1688   0.161E-02    0.736E-02
DAV:  22    -0.294342534478E+03   -0.54506E-03   -0.10581E-04  1984   0.166E-02    0.311E-02
DAV:  23    -0.294343195651E+03   -0.66117E-03   -0.14972E-04  2224   0.163E-02    0.227E-02
DAV:  24    -0.294343315143E+03   -0.11949E-03   -0.14494E-05  1632   0.742E-03    0.196E-02
DAV:  25    -0.294343422456E+03   -0.10731E-03   -0.59758E-06  1600   0.428E-03    0.148E-02
DAV:  26    -0.294343891736E+03   -0.46928E-03   -0.46006E-05  1960   0.897E-03    0.103E-02
DAV:  27    -0.294343973403E+03   -0.81666E-04   -0.10071E-05  1648   0.442E-03
   1 F= -.29434397E+03 E0= -.29432405E+03  d E =-.294344E+03
 curvature:   0.00 expect dE= 0.000E+00 dE for cont linesearch  0.000E+00
 trial: gam= 0.00000 g(F)=  0.800E+00 g(S)=  0.000E+00 ort = 0.000E+00 (trialstep = 0.100E+01)
 search vector abs. value=  0.800E+00
 bond charge predicted
       N       E                     dE             d eps       ncg     rms          rms(c)
DAV:   1    -0.294956061221E+03   -0.61217E+00   -0.11120E+01  2816   0.613E+00    0.230E+00
DAV:   2    -0.295027460448E+03   -0.71399E-01   -0.82123E-01  3416   0.173E+00    0.795E-01
DAV:   3    -0.295099071676E+03   -0.71611E-01   -0.74261E-01  4000   0.122E+00    0.140E+00
DAV:   4    -0.295021828808E+03    0.77243E-01   -0.64999E-01  4000   0.111E+00    0.460E-01
DAV:   5    -0.295019710471E+03    0.21183E-02   -0.32613E-02  3360   0.323E-01    0.313E-01
DAV:   6    -0.295019626108E+03    0.84363E-04   -0.10919E-02  3368   0.156E-01    0.247E-01
DAV:   7    -0.295019573087E+03    0.53021E-04   -0.25013E-03  3328   0.796E-02    0.133E-01
DAV:   8    -0.295019658533E+03   -0.85446E-04   -0.15437E-03  2928   0.596E-02    0.835E-02
DAV:   9    -0.295019617013E+03    0.41520E-04   -0.14263E-03  2464   0.479E-02    0.526E-02
DAV:  10    -0.295019601876E+03    0.15137E-04   -0.33811E-04  1712   0.303E-02
   2 F= -.29501960E+03 E0= -.29500104E+03  d E =-.675628E+00
 trial-energy change:   -0.675628  1 .order   -0.667924   -0.800089   -0.535760
 step:   2.4235(harm=  3.0269)  dis= 0.13703  next Energy=  -295.423163 (dE=-0.108E+01)
 bond charge predicted
       N       E                     dE             d eps       ncg     rms          rms(c)
DAV:   1    -0.295272698781E+03   -0.25308E+00   -0.22801E+01  2816   0.887E+00    0.372E+00
DAV:   2    -0.295435286865E+03   -0.16259E+00   -0.18124E+00  3424   0.254E+00    0.119E+00
DAV:   3    -0.295602889079E+03   -0.16760E+00   -0.18120E+00  4000   0.189E+00    0.218E+00
DAV:   4    -0.295420090265E+03    0.18280E+00   -0.15579E+00  4000   0.169E+00    0.682E-01
DAV:   5    -0.295415411381E+03    0.46789E-02   -0.76517E-02  3440   0.491E-01    0.479E-01
DAV:   6    -0.295414869545E+03    0.54184E-03   -0.25950E-02  3400   0.238E-01    0.364E-01
DAV:   7    -0.295414745228E+03    0.12432E-03   -0.38127E-03  3248   0.110E-01    0.189E-01
DAV:   8    -0.295414792635E+03   -0.47406E-04   -0.20298E-03  3336   0.815E-02    0.101E-01
DAV:   9    -0.295414816063E+03   -0.23428E-04   -0.17672E-03  3072   0.612E-02    0.752E-02
DAV:  10    -0.295414781570E+03    0.34493E-04   -0.50622E-04  1936   0.364E-02
   3 F= -.29541478E+03 E0= -.29539839E+03  d E =-.107081E+01
 curvature:  -1.38 expect dE=-0.481E+00 dE for cont linesearch -0.464E-03
 trial: gam= 0.45596 g(F)=  0.348E+00 g(S)=  0.000E+00 ort =-0.164E-01 (trialstep = 0.128E+01)
 search vector abs. value=  0.500E+00
 bond charge predicted
       N       E                     dE             d eps       ncg     rms          rms(c)
DAV:   1    -0.295613246302E+03   -0.19843E+00   -0.14388E+01  2816   0.694E+00    0.280E+00
DAV:   2    -0.295712776537E+03   -0.99530E-01   -0.11728E+00  3488   0.201E+00    0.786E-01
DAV:   3    -0.295710232652E+03    0.25439E-02   -0.86009E-02  3464   0.595E-01    0.726E-01
DAV:   4    -0.295712779439E+03   -0.25468E-02   -0.87014E-02  3648   0.495E-01    0.594E-01
DAV:   5    -0.295710242569E+03    0.25369E-02   -0.10522E-01  3648   0.461E-01    0.543E-01
DAV:   6    -0.295707564696E+03    0.26779E-02   -0.30227E-02  3536   0.217E-01    0.309E-01
DAV:   7    -0.295706807713E+03    0.75698E-03   -0.13444E-02  3600   0.168E-01    0.135E-01
DAV:   8    -0.295706780000E+03    0.27713E-04   -0.29040E-03  3264   0.912E-02    0.832E-02
DAV:   9    -0.295706730741E+03    0.49260E-04   -0.80183E-04  2488   0.552E-02
   4 F= -.29570673E+03 E0= -.29569098E+03  d E =-.291949E+00
 trial-energy change:   -0.291949  1 .order   -0.287744   -0.437997   -0.137492
 step:   1.8103(harm=  1.8725)  dis= 0.11746  next Energy=  -295.735145 (dE=-0.320E+00)
 bond charge predicted
       N       E                     dE             d eps       ncg     rms          rms(c)
DAV:   1    -0.295720100871E+03   -0.13321E-01   -0.24080E+00  2816   0.285E+00    0.110E+00
DAV:   2    -0.295736877909E+03   -0.16777E-01   -0.20134E-01  3528   0.831E-01    0.314E-01
DAV:   3    -0.295737265647E+03   -0.38774E-03   -0.20715E-02  3592   0.272E-01    0.293E-01
DAV:   4    -0.295737991736E+03   -0.72609E-03   -0.34476E-02  3776   0.281E-01    0.281E-01
DAV:   5    -0.295736172518E+03    0.18192E-02   -0.20387E-02  3776   0.197E-01    0.179E-01
DAV:   6    -0.295736171401E+03    0.11176E-05   -0.35597E-03  3536   0.816E-02    0.126E-01
DAV:   7    -0.295736039358E+03    0.13204E-03   -0.17807E-03  2800   0.623E-02    0.559E-02
DAV:   8    -0.295736061425E+03   -0.22067E-04   -0.38954E-04  1968   0.351E-02
   5 F= -.29573606E+03 E0= -.29572041E+03  d E =-.321280E+00
 curvature:  -1.36 expect dE=-0.264E+00 dE for cont linesearch -0.342E-04
 trial: gam= 0.38418 g(F)=  0.194E+00 g(S)=  0.000E+00 ort = 0.355E-02 (trialstep = 0.139E+01)
 search vector abs. value=  0.271E+00
 bond charge predicted
       N       E                     dE             d eps       ncg     rms          rms(c)
DAV:   1    -0.295870537800E+03   -0.13450E+00   -0.93917E+00  2816   0.552E+00    0.197E+00
DAV:   2    -0.295936976622E+03   -0.66439E-01   -0.77200E-01  3560   0.160E+00    0.652E-01
DAV:   3    -0.295941126656E+03   -0.41500E-02   -0.87138E-02  3760   0.519E-01    0.622E-01
DAV:   4    -0.295941615091E+03   -0.48844E-03   -0.16585E-01  3792   0.568E-01    0.605E-01
DAV:   5    -0.295934018086E+03    0.75970E-02   -0.43554E-02  3792   0.318E-01    0.282E-01
DAV:   6    -0.295934457127E+03   -0.43904E-03   -0.71768E-03  3192   0.156E-01    0.157E-01
DAV:   7    -0.295934351280E+03    0.10585E-03   -0.15304E-03  3296   0.682E-02    0.102E-01
DAV:   8    -0.295934403844E+03   -0.52564E-04   -0.36458E-04  2024   0.376E-02
   6 F= -.29593440E+03 E0= -.29591850E+03  d E =-.198342E+00
 trial-energy change:   -0.198342  1 .order   -0.198204   -0.271781   -0.124627
 step:   2.5669(harm=  2.5669)  dis= 0.11196  next Energy=  -295.987040 (dE=-0.251E+00)
 bond charge predicted
       N       E                     dE             d eps       ncg     rms          rms(c)
DAV:   1    -0.295944506937E+03   -0.10156E-01   -0.67431E+00  2816   0.467E+00    0.165E+00
DAV:   2    -0.295992189961E+03   -0.47683E-01   -0.55524E-01  3560   0.136E+00    0.557E-01
DAV:   3    -0.295997565347E+03   -0.53754E-02   -0.83932E-02  3824   0.494E-01    0.569E-01
DAV:   4    -0.295994715641E+03    0.28497E-02   -0.13862E-01  3824   0.517E-01    0.491E-01
DAV:   5    -0.295989948820E+03    0.47668E-02   -0.26062E-02  3760   0.248E-01    0.225E-01
DAV:   6    -0.295990398698E+03   -0.44988E-03   -0.55426E-03  3456   0.132E-01    0.135E-01
DAV:   7    -0.295990223418E+03    0.17528E-03   -0.21462E-03  3480   0.771E-02    0.978E-02
DAV:   8    -0.295990218951E+03    0.44669E-05   -0.35198E-04  1792   0.288E-02
   7 F= -.29599022E+03 E0= -.29597394E+03  d E =-.254158E+00
 curvature:  -1.78 expect dE=-0.136E+00 dE for cont linesearch -0.158E-03
 trial: gam= 0.36952 g(F)=  0.767E-01 g(S)=  0.000E+00 ort = 0.490E-02 (trialstep = 0.163E+01)
 search vector abs. value=  0.117E+00
 bond charge predicted
       N       E                     dE             d eps       ncg     rms          rms(c)
DAV:   1    -0.296033658686E+03   -0.43435E-01   -0.62716E+00  2816   0.432E+00    0.155E+00
DAV:   2    -0.296096279553E+03   -0.62621E-01   -0.68466E-01  3584   0.140E+00    0.984E-01
DAV:   3    -0.296189664796E+03   -0.93385E-01   -0.14749E+00  3936   0.170E+00    0.152E+00
DAV:   4    -0.296072813102E+03    0.11685E+00   -0.61522E-01  3936   0.126E+00    0.341E-01
DAV:   5    -0.296072823922E+03   -0.10821E-04   -0.18585E-02  3336   0.284E-01    0.429E-01
DAV:   6    -0.296073055805E+03   -0.23188E-03   -0.33593E-03  3232   0.113E-01    0.364E-01
DAV:   7    -0.296072990960E+03    0.64845E-04   -0.27465E-04  2144   0.320E-02
   8 F= -.29607299E+03 E0= -.29605778E+03  d E =-.827720E-01
 trial-energy change:   -0.082772  1 .order   -0.083674   -0.127676   -0.039671
 step:   2.4321(harm=  2.3579)  dis= 0.06717  next Energy=  -296.082728 (dE=-0.925E-01)
 bond charge predicted
       N       E                     dE             d eps       ncg     rms          rms(c)
DAV:   1    -0.296071159184E+03    0.18966E-02   -0.15059E+00  2824   0.211E+00    0.723E-01
DAV:   2    -0.296082746704E+03   -0.11588E-01   -0.13639E-01  3584   0.644E-01    0.375E-01
DAV:   3    -0.296094568472E+03   -0.11822E-01   -0.16162E-01  3952   0.571E-01    0.589E-01
DAV:   4    -0.296080547310E+03    0.14021E-01   -0.10004E-01  3952   0.476E-01    0.195E-01
DAV:   5    -0.296080279848E+03    0.26746E-03   -0.88222E-03  3696   0.150E-01    0.191E-01
DAV:   6    -0.296080137857E+03    0.14199E-03   -0.16640E-03  3344   0.680E-02    0.138E-01
DAV:   7    -0.296080118191E+03    0.19666E-04   -0.25832E-04  1960   0.305E-02
   9 F= -.29608012E+03 E0= -.29606517E+03  d E =-.898992E-01
 curvature:  -1.74 expect dE=-0.932E-01 dE for cont linesearch -0.286E-03
 trial: gam= 0.77675 g(F)=  0.535E-01 g(S)=  0.000E+00 ort =-0.439E-02 (trialstep = 0.178E+01)
 search vector abs. value=  0.117E+00
 bond charge predicted
       N       E                     dE             d eps       ncg     rms          rms(c)
DAV:   1    -0.296099597601E+03   -0.19460E-01   -0.72153E+00  2816   0.461E+00    0.154E+00
DAV:   2    -0.296156531802E+03   -0.56934E-01   -0.62507E-01  3560   0.139E+00    0.781E-01
DAV:   3    -0.296222589913E+03   -0.66058E-01   -0.86004E-01  3984   0.136E+00    0.122E+00
DAV:   4    -0.296144872412E+03    0.77718E-01   -0.43756E-01  3984   0.110E+00    0.347E-01
DAV:   5    -0.296144423739E+03    0.44867E-03   -0.19560E-02  3296   0.273E-01    0.363E-01
DAV:   6    -0.296144483841E+03   -0.60102E-04   -0.48030E-03  3256   0.122E-01    0.286E-01
DAV:   7    -0.296144402321E+03    0.81519E-04   -0.68919E-04  2544   0.488E-02
  10 F= -.29614440E+03 E0= -.29613014E+03  d E =-.642841E-01
 trial-energy change:   -0.064284  1 .order   -0.064923   -0.089354   -0.040491
 step:   3.5359(harm=  3.2639)  dis= 0.09376  next Energy=  -296.163661 (dE=-0.835E-01)
 bond charge predicted
       N       E                     dE             d eps       ncg     rms          rms(c)
DAV:   1    -0.296114538117E+03    0.29946E-01   -0.68898E+00  2816   0.452E+00    0.151E+00
DAV:   2    -0.296167533547E+03   -0.52995E-01   -0.58565E-01  3584   0.136E+00    0.742E-01
DAV:   3    -0.296222926531E+03   -0.55393E-01   -0.71636E-01  3968   0.129E+00    0.110E+00
DAV:   4    -0.296158010714E+03    0.64916E-01   -0.38942E-01  3968   0.105E+00    0.350E-01
DAV:   5    -0.296157255805E+03    0.75491E-03   -0.22030E-02  3456   0.272E-01    0.354E-01
DAV:   6    -0.296157210292E+03    0.45513E-04   -0.51960E-03  3328   0.122E-01    0.281E-01
DAV:   7    -0.296157150927E+03    0.59365E-04   -0.66615E-04  2624   0.499E-02
  11 F= -.29615715E+03 E0= -.29614344E+03  d E =-.770327E-01
 curvature:  -3.70 expect dE=-0.286E+00 dE for cont linesearch -0.147E-02
 trial: gam= 1.40370 g(F)=  0.774E-01 g(S)=  0.000E+00 ort =-0.683E-02 (trialstep = 0.866E+00)
 search vector abs. value=  0.290E+00
 bond charge predicted
       N       E                     dE             d eps       ncg     rms          rms(c)
DAV:   1    -0.296181008034E+03   -0.23798E-01   -0.37844E+00  2816   0.337E+00    0.102E+00
DAV:   2    -0.296205309196E+03   -0.24301E-01   -0.27751E-01  3488   0.965E-01    0.408E-01
DAV:   3    -0.296207235874E+03   -0.19267E-02   -0.41699E-02  3744   0.356E-01    0.382E-01
DAV:   4    -0.296206136169E+03    0.10997E-02   -0.58593E-02  3792   0.381E-01    0.309E-01
DAV:   5    -0.296203935992E+03    0.22002E-02   -0.19346E-02  3792   0.220E-01    0.186E-01
DAV:   6    -0.296204049325E+03   -0.11333E-03   -0.37150E-03  3392   0.104E-01    0.123E-01
DAV:   7    -0.296203910881E+03    0.13844E-03   -0.14064E-03  2992   0.578E-02    0.516E-02
DAV:   8    -0.296203920993E+03   -0.10112E-04   -0.31326E-04  1776   0.303E-02
  12 F= -.29620392E+03 E0= -.29619036E+03  d E =-.467701E-01
 trial-energy change:   -0.046770  1 .order   -0.047065   -0.058691   -0.035440
 step:   2.1855(harm=  2.1855)  dis= 0.10493  next Energy=  -296.231225 (dE=-0.741E-01)
 bond charge predicted
       N       E                     dE             d eps       ncg     rms          rms(c)
DAV:   1    -0.296174423379E+03    0.29488E-01   -0.88929E+00  2816   0.518E+00    0.166E+00
DAV:   2    -0.296233659084E+03   -0.59236E-01   -0.67256E-01  3504   0.149E+00    0.621E-01
DAV:   3    -0.296243444095E+03   -0.97850E-02   -0.15753E-01  3832   0.667E-01    0.673E-01
DAV:   4    -0.296232554137E+03    0.10890E-01   -0.15415E-01  3840   0.639E-01    0.427E-01
DAV:   5    -0.296229688462E+03    0.28657E-02   -0.29984E-02  3792   0.290E-01    0.323E-01
DAV:   6    -0.296229987512E+03   -0.29905E-03   -0.61654E-03  3304   0.137E-01    0.221E-01
DAV:   7    -0.296229658711E+03    0.32880E-03   -0.37680E-03  3528   0.946E-02    0.911E-02
DAV:   8    -0.296229677446E+03   -0.18735E-04   -0.11711E-03  2880   0.529E-02    0.704E-02
DAV:   9    -0.296229633847E+03    0.43598E-04   -0.42272E-04  1808   0.319E-02
  13 F= -.29622963E+03 E0= -.29621621E+03  d E =-.724829E-01
 curvature:  -4.67 expect dE=-0.217E+00 dE for cont linesearch -0.940E-04
 trial: gam= 0.34328 g(F)=  0.465E-01 g(S)=  0.000E+00 ort =-0.242E-02 (trialstep = 0.113E+01)
 search vector abs. value=  0.789E-01
 bond charge predicted
       N       E                     dE             d eps       ncg     rms          rms(c)
DAV:   1    -0.296259028306E+03   -0.29351E-01   -0.18048E+00  2816   0.234E+00    0.731E-01
DAV:   2    -0.296270946245E+03   -0.11918E-01   -0.13610E-01  3504   0.684E-01    0.249E-01
DAV:   3    -0.296271134203E+03   -0.18796E-03   -0.11220E-02  3576   0.213E-01    0.206E-01
DAV:   4    -0.296271816273E+03   -0.68207E-03   -0.22124E-02  3824   0.236E-01    0.213E-01
DAV:   5    -0.296270416321E+03    0.14000E-02   -0.10039E-02  3488   0.158E-01    0.104E-01
DAV:   6    -0.296270473636E+03   -0.57315E-04   -0.14974E-03  3176   0.672E-02    0.527E-02
DAV:   7    -0.296270484727E+03   -0.11091E-04   -0.21105E-04  1624   0.297E-02
  14 F= -.29627048E+03 E0= -.29625704E+03  d E =-.408509E-01
 trial-energy change:   -0.040851  1 .order   -0.040822   -0.051564   -0.030081
 step:   2.7116(harm=  2.7116)  dis= 0.08003  next Energy=  -296.291515 (dE=-0.619E-01)
 bond charge predicted
       N       E                     dE             d eps       ncg     rms          rms(c)
DAV:   1    -0.296268569117E+03    0.19045E-02   -0.35427E+00  2816   0.329E+00    0.105E+00
DAV:   2    -0.296292103089E+03   -0.23534E-01   -0.26733E-01  3496   0.960E-01    0.339E-01
DAV:   3    -0.296291784814E+03    0.31828E-03   -0.14992E-02  3504   0.261E-01    0.276E-01
DAV:   4    -0.296293243725E+03   -0.14589E-02   -0.27160E-02  3920   0.266E-01    0.274E-01
DAV:   5    -0.296291237250E+03    0.20065E-02   -0.18880E-02  3872   0.215E-01    0.158E-01
DAV:   6    -0.296291174557E+03    0.62693E-04   -0.34668E-03  3296   0.101E-01    0.708E-02
DAV:   7    -0.296291238760E+03   -0.64203E-04   -0.82882E-04  2848   0.513E-02
  15 F= -.29629124E+03 E0= -.29627770E+03  d E =-.616049E-01
 curvature:  -2.34 expect dE=-0.785E-01 dE for cont linesearch -0.147E-04
 trial: gam= 0.71065 g(F)=  0.335E-01 g(S)=  0.000E+00 ort =-0.704E-03 (trialstep = 0.145E+01)
 search vector abs. value=  0.724E-01
 bond charge predicted
       N       E                     dE             d eps       ncg     rms          rms(c)
DAV:   1    -0.296313284296E+03   -0.22110E-01   -0.26613E+00  2816   0.288E+00    0.842E-01
DAV:   2    -0.296330650364E+03   -0.17366E-01   -0.20146E-01  3480   0.834E-01    0.382E-01
DAV:   3    -0.296340964991E+03   -0.10315E-01   -0.13356E-01  3904   0.606E-01    0.486E-01
DAV:   4    -0.296329468581E+03    0.11496E-01   -0.95544E-02  3904   0.509E-01    0.200E-01
DAV:   5    -0.296328825285E+03    0.64330E-03   -0.76160E-03  3624   0.162E-01    0.174E-01
DAV:   6    -0.296329004831E+03   -0.17955E-03   -0.15975E-03  3432   0.723E-02    0.126E-01
DAV:   7    -0.296328914411E+03    0.90421E-04   -0.72901E-04  2064   0.452E-02
  16 F= -.29632891E+03 E0= -.29631539E+03  d E =-.376757E-01
 trial-energy change:   -0.037676  1 .order   -0.037919   -0.047707   -0.028130
 step:   3.5241(harm=  3.5241)  dis= 0.10529  next Energy=  -296.349367 (dE=-0.581E-01)
 bond charge predicted
       N       E                     dE             d eps       ncg     rms          rms(c)
DAV:   1    -0.296314915003E+03    0.14090E-01   -0.54398E+00  2816   0.413E+00    0.124E+00
DAV:   2    -0.296350479984E+03   -0.35565E-01   -0.41163E-01  3480   0.119E+00    0.566E-01
DAV:   3    -0.296371932814E+03   -0.21453E-01   -0.27784E-01  3920   0.890E-01    0.685E-01
DAV:   4    -0.296348536452E+03    0.23396E-01   -0.20563E-01  3920   0.767E-01    0.302E-01
DAV:   5    -0.296346631086E+03    0.19054E-02   -0.19298E-02  3624   0.254E-01    0.245E-01
DAV:   6    -0.296347005305E+03   -0.37422E-03   -0.44252E-03  3472   0.116E-01    0.189E-01
DAV:   7    -0.296346793783E+03    0.21152E-03   -0.12636E-03  2792   0.618E-02    0.102E-01
DAV:   8    -0.296346811299E+03   -0.17516E-04   -0.53573E-04  2696   0.430E-02
  17 F= -.29634681E+03 E0= -.29633325E+03  d E =-.555725E-01
 curvature:  -3.86 expect dE=-0.111E+00 dE for cont linesearch -0.239E-03
 trial: gam= 0.85775 g(F)=  0.288E-01 g(S)=  0.000E+00 ort =-0.212E-02 (trialstep = 0.172E+01)
 search vector abs. value=  0.784E-01
 bond charge predicted
       N       E                     dE             d eps       ncg     rms          rms(c)
DAV:   1    -0.296352580954E+03   -0.57872E-02   -0.39351E+00  2816   0.356E+00    0.109E+00
DAV:   2    -0.296377944652E+03   -0.25364E-01   -0.29786E-01  3496   0.102E+00    0.456E-01
DAV:   3    -0.296390827037E+03   -0.12882E-01   -0.16242E-01  3824   0.700E-01    0.558E-01
DAV:   4    -0.296377117956E+03    0.13709E-01   -0.13027E-01  3824   0.609E-01    0.256E-01
DAV:   5    -0.296375723541E+03    0.13944E-02   -0.14303E-02  3664   0.219E-01    0.222E-01
DAV:   6    -0.296375956860E+03   -0.23332E-03   -0.21772E-03  3240   0.907E-02    0.146E-01
DAV:   7    -0.296375849833E+03    0.10703E-03   -0.57569E-04  2040   0.456E-02    0.710E-02
DAV:   8    -0.296375886195E+03   -0.36362E-04   -0.51915E-04  2424   0.396E-02
  18 F= -.29637589E+03 E0= -.29636227E+03  d E =-.290749E-01
 trial-energy change:   -0.029075  1 .order   -0.029056   -0.046334   -0.011777
 step:   2.3043(harm=  2.3043)  dis= 0.07649  next Energy=  -296.377874 (dE=-0.311E-01)
 bond charge predicted
       N       E                     dE             d eps       ncg     rms          rms(c)
DAV:   1    -0.296375148705E+03    0.70113E-03   -0.45669E-01  2848   0.122E+00    0.371E-01
DAV:   2    -0.296378076122E+03   -0.29274E-02   -0.34414E-02  3480   0.348E-01    0.157E-01
DAV:   3    -0.296379150142E+03   -0.10740E-02   -0.13678E-02  3808   0.209E-01    0.165E-01
DAV:   4    -0.296378203545E+03    0.94660E-03   -0.14443E-02  3432   0.198E-01    0.962E-02
DAV:   5    -0.296377908574E+03    0.29497E-03   -0.22523E-03  2840   0.836E-02    0.584E-02
DAV:   6    -0.296377960389E+03   -0.51815E-04   -0.43872E-04  2328   0.377E-02
  19 F= -.29637796E+03 E0= -.29636435E+03  d E =-.311491E-01
 curvature:  -3.35 expect dE=-0.688E-01 dE for cont linesearch -0.287E-05
 trial: gam= 0.56259 g(F)=  0.206E-01 g(S)=  0.000E+00 ort = 0.259E-03 (trialstep = 0.184E+01)
 search vector abs. value=  0.457E-01
 bond charge predicted
       N       E                     dE             d eps       ncg     rms          rms(c)
DAV:   1    -0.296385886814E+03   -0.79782E-02   -0.27507E+00  2816   0.296E+00    0.933E-01
DAV:   2    -0.296403161684E+03   -0.17275E-01   -0.20162E-01  3496   0.840E-01    0.320E-01
DAV:   3    -0.296403797662E+03   -0.63598E-03   -0.18830E-02  3568   0.278E-01    0.259E-01
DAV:   4    -0.296404684321E+03   -0.88666E-03   -0.34061E-02  3712   0.304E-01    0.247E-01
DAV:   5    -0.296402648118E+03    0.20362E-02   -0.17019E-02  3696   0.215E-01    0.130E-01
DAV:   6    -0.296402722843E+03   -0.74725E-04   -0.30421E-03  3408   0.971E-02    0.889E-02
DAV:   7    -0.296402644800E+03    0.78043E-04   -0.10853E-03  2808   0.536E-02    0.407E-02
DAV:   8    -0.296402641080E+03    0.37205E-05   -0.14848E-04  1624   0.233E-02
  20 F= -.29640264E+03 E0= -.29638894E+03  d E =-.246807E-01
 trial-energy change:   -0.024681  1 .order   -0.024590   -0.037995   -0.011184
 step:   2.6015(harm=  2.6015)  dis= 0.06074  next Energy=  -296.404883 (dE=-0.269E-01)
 bond charge predicted
       N       E                     dE             d eps       ncg     rms          rms(c)
DAV:   1    -0.296401948112E+03    0.69669E-03   -0.48003E-01  2832   0.124E+00    0.392E-01
DAV:   2    -0.296405037505E+03   -0.30894E-02   -0.35706E-02  3496   0.353E-01    0.130E-01
DAV:   3    -0.296405029599E+03    0.79056E-05   -0.19001E-03  3408   0.946E-02    0.917E-02
DAV:   4    -0.296405172266E+03   -0.14267E-03   -0.23669E-03  2824   0.842E-02    0.847E-02
DAV:   5    -0.296405020480E+03    0.15179E-03   -0.24180E-03  2496   0.812E-02    0.552E-02
DAV:   6    -0.296404982233E+03    0.38246E-04   -0.57369E-04  2072   0.433E-02
  21 F= -.29640498E+03 E0= -.29639127E+03  d E =-.270218E-01
 curvature:  -2.87 expect dE=-0.350E-01 dE for cont linesearch -0.725E-05
 trial: gam= 0.57966 g(F)=  0.122E-01 g(S)=  0.000E+00 ort = 0.340E-03 (trialstep = 0.199E+01)
 search vector abs. value=  0.279E-01
 bond charge predicted
       N       E                     dE             d eps       ncg     rms          rms(c)
DAV:   1    -0.296410430306E+03   -0.54098E-02   -0.19866E+00  2816   0.250E+00    0.785E-01
DAV:   2    -0.296423649384E+03   -0.13219E-01   -0.15384E-01  3480   0.738E-01    0.361E-01
DAV:   3    -0.296431336287E+03   -0.76869E-02   -0.10837E-01  3872   0.551E-01    0.431E-01
DAV:   4    -0.296422786044E+03    0.85502E-02   -0.79584E-02  3872   0.463E-01    0.181E-01
DAV:   5    -0.296422091649E+03    0.69440E-03   -0.72761E-03  3672   0.161E-01    0.153E-01
DAV:   6    -0.296422210328E+03   -0.11868E-03   -0.14227E-03  3200   0.709E-02    0.103E-01
DAV:   7    -0.296422157920E+03    0.52408E-04   -0.49559E-04  1840   0.345E-02
  22 F= -.29642216E+03 E0= -.29640821E+03  d E =-.171757E-01
 trial-energy change:   -0.017176  1 .order   -0.017515   -0.024649   -0.010381
 step:   3.4361(harm=  3.4361)  dis= 0.05330  next Energy=  -296.426274 (dE=-0.213E-01)
 bond charge predicted
       N       E                     dE             d eps       ncg     rms          rms(c)
DAV:   1    -0.296419271760E+03    0.29386E-02   -0.10397E+00  2824   0.181E+00    0.563E-01
DAV:   2    -0.296426219170E+03   -0.69474E-02   -0.80065E-02  3488   0.530E-01    0.265E-01
DAV:   3    -0.296429941268E+03   -0.37221E-02   -0.54155E-02  3872   0.381E-01    0.307E-01
DAV:   4    -0.296425838463E+03    0.41028E-02   -0.41520E-02  3824   0.329E-01    0.135E-01
DAV:   5    -0.296425454064E+03    0.38440E-03   -0.45107E-03  3736   0.125E-01    0.106E-01
DAV:   6    -0.296425472039E+03   -0.17974E-04   -0.10503E-03  3200   0.572E-02    0.784E-02
DAV:   7    -0.296425452102E+03    0.19937E-04   -0.16711E-04  1640   0.238E-02
  23 F= -.29642545E+03 E0= -.29641125E+03  d E =-.204699E-01
 curvature:  -3.87 expect dE=-0.549E-01 dE for cont linesearch -0.202E-05
 trial: gam= 1.14507 g(F)=  0.142E-01 g(S)=  0.000E+00 ort =-0.121E-03 (trialstep = 0.126E+01)
 search vector abs. value=  0.505E-01
 bond charge predicted
       N       E                     dE             d eps       ncg     rms          rms(c)
DAV:   1    -0.296432985370E+03   -0.75133E-02   -0.14001E+00  2816   0.210E+00    0.587E-01
DAV:   2    -0.296442867431E+03   -0.98821E-02   -0.11432E-01  3528   0.628E-01    0.373E-01
DAV:   3    -0.296448879574E+03   -0.60121E-02   -0.12298E-01  3904   0.579E-01    0.402E-01
DAV:   4    -0.296440926443E+03    0.79531E-02   -0.68420E-02  3888   0.430E-01    0.151E-01
DAV:   5    -0.296440484501E+03    0.44194E-03   -0.48940E-03  3608   0.137E-01    0.143E-01
DAV:   6    -0.296440563314E+03   -0.78813E-04   -0.94055E-04  3136   0.593E-02
  24 F= -.29644056E+03 E0= -.29642602E+03  d E =-.151112E-01
 trial-energy change:   -0.015111  1 .order   -0.015310   -0.017692   -0.012927
 step:   4.6755(harm=  4.6755)  dis= 0.09928  next Energy=  -296.458297 (dE=-0.328E-01)
 bond charge predicted
       N       E                     dE             d eps       ncg     rms          rms(c)
DAV:   1    -0.296399688395E+03    0.40796E-01   -0.10250E+01  2816   0.570E+00    0.166E+00
DAV:   2    -0.296471232285E+03   -0.71544E-01   -0.81432E-01  3512   0.167E+00    0.927E-01
DAV:   3    -0.296518310424E+03   -0.47078E-01   -0.83304E-01  3936   0.153E+00    0.104E+00
DAV:   4    -0.296458446119E+03    0.59864E-01   -0.40014E-01  3936   0.116E+00    0.412E-01
DAV:   5    -0.296456654998E+03    0.17911E-02   -0.27305E-02  3536   0.346E-01    0.445E-01
DAV:   6    -0.296457055625E+03   -0.40063E-03   -0.57333E-03  3152   0.150E-01    0.310E-01
DAV:   7    -0.296456954143E+03    0.10148E-03   -0.22820E-03  3512   0.725E-02    0.181E-01
DAV:   8    -0.296457084278E+03   -0.13014E-03   -0.36016E-03  3472   0.890E-02    0.119E-01
DAV:   9    -0.296456865834E+03    0.21844E-03   -0.16530E-03  3088   0.615E-02    0.652E-02
DAV:  10    -0.296456857153E+03    0.86805E-05   -0.12455E-04  1616   0.223E-02
  25 F= -.29645686E+03 E0= -.29644154E+03  d E =-.314051E-01
 curvature:  -8.41 expect dE=-0.170E+00 dE for cont linesearch -0.737E-04
 trial: gam= 1.31814 g(F)=  0.202E-01 g(S)=  0.000E+00 ort =-0.666E-03 (trialstep = 0.924E+00)
 search vector abs. value=  0.106E+00
 bond charge predicted
       N       E                     dE             d eps       ncg     rms          rms(c)
DAV:   1    -0.296463758220E+03   -0.68924E-02   -0.15545E+00  2816   0.221E+00    0.609E-01
DAV:   2    -0.296472940563E+03   -0.91823E-02   -0.10447E-01  3432   0.600E-01    0.208E-01
DAV:   3    -0.296473103112E+03   -0.16255E-03   -0.54844E-03  3720   0.152E-01    0.173E-01
DAV:   4    -0.296473406581E+03   -0.30347E-03   -0.73337E-03  3712   0.147E-01    0.154E-01
DAV:   5    -0.296472991819E+03    0.41476E-03   -0.62761E-03  3008   0.136E-01    0.943E-02
DAV:   6    -0.296472865725E+03    0.12609E-03   -0.15909E-03  3248   0.746E-02    0.394E-02
DAV:   7    -0.296472882002E+03   -0.16277E-04   -0.26624E-04  1960   0.339E-02
  26 F= -.29647288E+03 E0= -.29645735E+03  d E =-.160248E-01
 ZBRENT: can't locate minimum, use default step
 trial-energy change:   -0.016025  1 .order   -0.016129   -0.017838   -0.014421
 step:   3.6962(harm=  4.8239)  dis= 0.11338  next Energy=  -296.503417 (dE=-0.466E-01)
 bond charge predicted
       N       E                     dE             d eps       ncg     rms          rms(c)
DAV:   1    -0.296416885010E+03    0.55981E-01   -0.13831E+01  2816   0.663E+00    0.210E+00
DAV:   2    -0.296499587466E+03   -0.82702E-01   -0.94450E-01  3448   0.180E+00    0.682E-01
DAV:   3    -0.296501137822E+03   -0.15504E-02   -0.55078E-02  3640   0.486E-01    0.580E-01
DAV:   4    -0.296503236680E+03   -0.20989E-02   -0.66267E-02  3808   0.460E-01    0.530E-01
DAV:   5    -0.296499314373E+03    0.39223E-02   -0.43681E-02  3808   0.389E-01    0.327E-01
DAV:   6    -0.296498679735E+03    0.63464E-03   -0.11803E-02  3528   0.219E-01    0.129E-01
DAV:   7    -0.296498759618E+03   -0.79883E-04   -0.26569E-03  3144   0.104E-01    0.802E-02
DAV:   8    -0.296498700873E+03    0.58744E-04   -0.46183E-04  2160   0.373E-02
  27 F= -.29649870E+03 E0= -.29648354E+03  d E =-.418437E-01
 curvature: -12.16 expect dE=-0.270E+00 dE for cont linesearch -0.674E-03
 trial: gam= 0.71549 g(F)=  0.222E-01 g(S)=  0.000E+00 ort = 0.243E-02 (trialstep = 0.148E+01)
 search vector abs. value=  0.800E-01
 bond charge predicted
       N       E                     dE             d eps       ncg     rms          rms(c)
DAV:   1    -0.296511597459E+03   -0.12838E-01   -0.33358E+00  2832   0.318E+00    0.978E-01
DAV:   2    -0.296533059643E+03   -0.21462E-01   -0.25268E-01  3464   0.946E-01    0.409E-01
DAV:   3    -0.296538722408E+03   -0.56628E-02   -0.88315E-02  3776   0.568E-01    0.401E-01
DAV:   4    -0.296532708205E+03    0.60142E-02   -0.72790E-02  3776   0.477E-01    0.225E-01
DAV:   5    -0.296531526659E+03    0.11815E-02   -0.91409E-03  3744   0.191E-01    0.153E-01
DAV:   6    -0.296531747418E+03   -0.22076E-03   -0.26997E-03  3560   0.903E-02    0.139E-01
DAV:   7    -0.296531607998E+03    0.13942E-03   -0.78112E-04  2448   0.527E-02    0.740E-02
DAV:   8    -0.296531630732E+03   -0.22734E-04   -0.21187E-04  1760   0.266E-02
  28 F= -.29653163E+03 E0= -.29651687E+03  d E =-.329299E-01
 ZBRENT: can't locate minimum, use default step
 trial-energy change:   -0.032930  1 .order   -0.033022   -0.035331   -0.030714
 step:   5.9139(harm= 11.3132)  dis= 0.17042  next Energy=  -296.633875 (dE=-0.135E+00)
 bond charge predicted
       N       E                     dE             d eps       ncg     rms          rms(c)
DAV:   1    -0.296419433899E+03    0.11217E+00   -0.29459E+01  2832   0.955E+00    0.402E+00
DAV:   2    -0.296615986872E+03   -0.19655E+00   -0.23365E+00  3456   0.282E+00    0.139E+00
DAV:   3    -0.296657328047E+03   -0.41341E-01   -0.71173E-01  3760   0.153E+00    0.130E+00
DAV:   4    -0.296613471116E+03    0.43857E-01   -0.61085E-01  3760   0.130E+00    0.978E-01
DAV:   5    -0.296603657674E+03    0.98134E-02   -0.66835E-02  3720   0.528E-01    0.686E-01
DAV:   6    -0.296606025130E+03   -0.23675E-02   -0.24085E-02  3568   0.268E-01    0.542E-01
DAV:   7    -0.296604289254E+03    0.17359E-02   -0.13863E-02  3584   0.200E-01    0.293E-01
DAV:   8    -0.296604284546E+03    0.47080E-05   -0.30024E-03  3328   0.893E-02    0.188E-01
DAV:   9    -0.296604243921E+03    0.40625E-04   -0.68977E-04  2712   0.546E-02
  29 F= -.29660424E+03 E0= -.29658968E+03  d E =-.105543E+00
 curvature: -13.23 expect dE=-0.133E+01 dE for cont linesearch -0.229E-01
 ZBRENT: increasing intervall
 opt :  14.7849  next Energy=  -296.628772 (dE=-0.130E+00)
 bond charge predicted
       N       E                     dE             d eps       ncg     rms          rms(c)
DAV:   1    -0.295594898894E+03    0.10094E+01   -0.11363E+02  2864   0.192E+01    0.140E+01
DAV:   2    -0.296501214619E+03   -0.90632E+00   -0.10129E+01  3496   0.568E+00    0.398E+00
DAV:   3    -0.296600073885E+03   -0.98859E-01   -0.19056E+00  3864   0.250E+00    0.370E+00
DAV:   4    -0.296494773700E+03    0.10530E+00   -0.14425E+00  3808   0.218E+00    0.345E+00
DAV:   5    -0.296464076160E+03    0.30698E-01   -0.27692E-01  3808   0.101E+00    0.243E+00
DAV:   6    -0.296469705143E+03   -0.56290E-02   -0.10046E-01  3400   0.525E-01    0.103E+00
DAV:   7    -0.296463825305E+03    0.58798E-02   -0.65978E-02  3792   0.447E-01    0.472E-01
DAV:   8    -0.296463156516E+03    0.66879E-03   -0.11089E-02  3344   0.198E-01    0.255E-01
DAV:   9    -0.296463119171E+03    0.37345E-04   -0.18837E-03  3784   0.772E-02    0.178E-01
DAV:  10    -0.296463148678E+03   -0.29507E-04   -0.42785E-04  2176   0.393E-02
  30 F= -.29646315E+03 E0= -.29644736E+03  d E =0.355522E-01
 curvature: -14.17 expect dE=-0.781E+01 dE for cont linesearch -0.742E+00
 ZBRENT: bracketing found
 ZBRENT: interpolating
 opt :   7.2786  next Energy=  -296.612274 (dE=-0.114E+00)
 bond charge predicted
       N       E                     dE             d eps       ncg     rms          rms(c)
DAV:   1    -0.295957865967E+03    0.50525E+00   -0.81584E+01  2864   0.164E+01    0.112E+01
DAV:   2    -0.296669555381E+03   -0.71169E+00   -0.79622E+00  3536   0.501E+00    0.364E+00
DAV:   3    -0.296858216005E+03   -0.18866E+00   -0.29479E+00  3840   0.326E+00    0.378E+00
DAV:   4    -0.296629321231E+03    0.22889E+00   -0.17450E+00  3840   0.251E+00    0.285E+00
DAV:   5    -0.296616922953E+03    0.12398E-01   -0.18628E-01  3576   0.869E-01    0.252E+00
DAV:   6    -0.296622378627E+03   -0.54557E-02   -0.53959E-02  3368   0.411E-01    0.169E+00
DAV:   7    -0.296620117643E+03    0.22610E-02   -0.53969E-02  3680   0.371E-01    0.691E-01
DAV:   8    -0.296617690163E+03    0.24275E-02   -0.29192E-02  3488   0.258E-01    0.381E-01
DAV:   9    -0.296617309509E+03    0.38065E-03   -0.42696E-03  3240   0.112E-01    0.295E-01
DAV:  10    -0.296617249514E+03    0.59994E-04   -0.46819E-04  2624   0.384E-02
  31 F= -.29661725E+03 E0= -.29660251E+03  d E =-.118549E+00
 curvature:  -0.15 expect dE=-0.228E-01 dE for cont linesearch -0.971E-04
 ZBRENT: interpolating
 opt :   9.1616  next Energy=  -296.624618 (dE=-0.126E+00)
 bond charge predicted
       N       E                     dE             d eps       ncg     rms          rms(c)
DAV:   1    -0.296590168681E+03    0.27141E-01   -0.53176E+00  2856   0.403E+00    0.126E+00
DAV:   2    -0.296625530658E+03   -0.35362E-01   -0.41035E-01  3424   0.119E+00    0.501E-01
DAV:   3    -0.296636987250E+03   -0.11457E-01   -0.17889E-01  3776   0.748E-01    0.577E-01
DAV:   4    -0.296623299860E+03    0.13687E-01   -0.12327E-01  3776   0.591E-01    0.271E-01
DAV:   5    -0.296622513269E+03    0.78659E-03   -0.99872E-03  3632   0.196E-01    0.215E-01
DAV:   6    -0.296622795269E+03   -0.28200E-03   -0.31845E-03  3688   0.963E-02    0.177E-01
DAV:   7    -0.296622582997E+03    0.21227E-03   -0.14879E-03  3328   0.701E-02    0.962E-02
DAV:   8    -0.296622581171E+03    0.18267E-05   -0.45668E-04  2304   0.354E-02
  32 F= -.29662258E+03 E0= -.29660768E+03  d E =-.123880E+00
 curvature: -11.63 expect dE=-0.269E+01 dE for cont linesearch -0.615E-03
 trial: gam=10.44659 g(F)=  0.231E+00 g(S)=  0.000E+00 ort =-0.206E-02 (trialstep = 0.270E-01)
 search vector abs. value=  0.892E+01
 bond charge predicted
       N       E                     dE             d eps       ncg     rms          rms(c)
DAV:   1    -0.296627294425E+03   -0.47114E-02   -0.12584E-01  2864   0.614E-01    0.178E-01
DAV:   2    -0.296628064185E+03   -0.76976E-03   -0.92993E-03  3440   0.176E-01    0.727E-02
DAV:   3    -0.296628137465E+03   -0.73280E-04   -0.11346E-03  3032   0.661E-02    0.521E-02
DAV:   4    -0.296628170273E+03   -0.32809E-04   -0.19084E-03  2384   0.779E-02    0.512E-02
DAV:   5    -0.296628061730E+03    0.10854E-03   -0.71077E-04  2152   0.486E-02    0.200E-02
DAV:   6    -0.296628071081E+03   -0.93505E-05   -0.11880E-04  1632   0.181E-02
  33 F= -.29662807E+03 E0= -.29661312E+03  d E =-.548991E-02
 ZBRENT: can't locate minimum, use default step
 trial-energy change:   -0.005490  1 .order   -0.005523   -0.005676   -0.005369
 step:   0.1082(harm=  0.5001)  dis= 0.03348  next Energy=  -296.675064 (dE=-0.525E-01)
 bond charge predicted
       N       E                     dE             d eps       ncg     rms          rms(c)
DAV:   1    -0.296635790368E+03   -0.77286E-02   -0.11406E+00  2856   0.184E+00    0.535E-01
DAV:   2    -0.296643215106E+03   -0.74247E-02   -0.85736E-02  3432   0.536E-01    0.196E-01
DAV:   3    -0.296644718543E+03   -0.15034E-02   -0.22004E-02  3776   0.270E-01    0.214E-01
DAV:   4    -0.296643130562E+03    0.15880E-02   -0.17721E-02  3728   0.229E-01    0.113E-01
DAV:   5    -0.296642922867E+03    0.20770E-03   -0.23030E-03  3536   0.898E-02    0.811E-02
DAV:   6    -0.296642985911E+03   -0.63044E-04   -0.72822E-04  2520   0.455E-02
  34 F= -.29664299E+03 E0= -.29662793E+03  d E =-.204047E-01
 curvature:  -3.33 expect dE=-0.875E+00 dE for cont linesearch -0.104E-01
 ZBRENT: increasing intervall
 opt :   0.2704  next Energy=  -296.664802 (dE=-0.422E-01)
 bond charge predicted
       N       E                     dE             d eps       ncg     rms          rms(c)
DAV:   1    -0.296631547489E+03    0.11375E-01   -0.45662E+00  2872   0.370E+00    0.118E+00
DAV:   2    -0.296662090730E+03   -0.30543E-01   -0.34568E-01  3432   0.108E+00    0.416E-01
DAV:   3    -0.296669646614E+03   -0.75559E-02   -0.10827E-01  3824   0.582E-01    0.467E-01
DAV:   4    -0.296661445839E+03    0.82008E-02   -0.85949E-02  3824   0.493E-01    0.243E-01
DAV:   5    -0.296660553163E+03    0.89268E-03   -0.91546E-03  3656   0.180E-01    0.166E-01
DAV:   6    -0.296660825969E+03   -0.27281E-03   -0.30770E-03  3680   0.921E-02    0.137E-01
DAV:   7    -0.296660622599E+03    0.20337E-03   -0.13505E-03  3176   0.660E-02    0.684E-02
DAV:   8    -0.296660638127E+03   -0.15528E-04   -0.24039E-04  1912   0.276E-02
  35 F= -.29666064E+03 E0= -.29664531E+03  d E =-.380570E-01
 curvature:  -7.02 expect dE=-0.214E+01 dE for cont linesearch -0.140E-02
 trial: gam= 0.18432 g(F)=  0.305E+00 g(S)=  0.000E+00 ort = 0.422E-01 (trialstep = 0.757E-01)
 search vector abs. value=  0.624E+00
 bond charge predicted
       N       E                     dE             d eps       ncg     rms          rms(c)
DAV:   1    -0.296683347801E+03   -0.22725E-01   -0.79009E-02  2976   0.490E-01    0.172E-01
DAV:   2    -0.296683957709E+03   -0.60991E-03   -0.68309E-03  3408   0.150E-01    0.541E-02
DAV:   3    -0.296684220214E+03   -0.26251E-03   -0.31925E-03  3048   0.967E-02    0.805E-02
DAV:   4    -0.296683921308E+03    0.29891E-03   -0.20853E-03  2584   0.787E-02    0.255E-02
DAV:   5    -0.296683925646E+03   -0.43383E-05   -0.12893E-04  1712   0.243E-02
  36 F= -.29668393E+03 E0= -.29666857E+03  d E =-.232875E-01
 ZBRENT: can't locate minimum, use default step
 trial-energy change:   -0.023288  1 .order   -0.023292   -0.023707   -0.022876
 step:   0.3029(harm=  2.1601)  dis= 0.01759  next Energy=  -296.998771 (dE=-0.338E+00)
 bond charge predicted
       N       E                     dE             d eps       ncg     rms          rms(c)
DAV:   1    -0.296743573350E+03   -0.59652E-01   -0.71474E-01  2888   0.147E+00    0.531E-01
DAV:   2    -0.296748880339E+03   -0.53070E-02   -0.58974E-02  3344   0.445E-01    0.144E-01
DAV:   3    -0.296749744795E+03   -0.86446E-03   -0.12404E-02  3744   0.194E-01    0.173E-01
DAV:   4    -0.296748760610E+03    0.98419E-03   -0.10482E-02  3744   0.175E-01    0.888E-02
DAV:   5    -0.296748638600E+03    0.12201E-03   -0.11153E-03  3288   0.679E-02    0.550E-02
DAV:   6    -0.296748675726E+03   -0.37126E-04   -0.34681E-04  2032   0.325E-02
  37 F= -.29674868E+03 E0= -.29673335E+03  d E =-.880376E-01
 curvature:  -0.44 expect dE=-0.104E+00 dE for cont linesearch -0.509E-01
 ZBRENT: increasing intervall
 opt :   0.7573  next Energy=  -296.854637 (dE=-0.194E+00)
 bond charge predicted
       N       E                     dE             d eps       ncg     rms          rms(c)
DAV:   1    -0.296831145322E+03   -0.82507E-01   -0.28828E+00  2888   0.296E+00    0.117E+00
DAV:   2    -0.296852774553E+03   -0.21629E-01   -0.23975E-01  3384   0.899E-01    0.297E-01
DAV:   3    -0.296856990196E+03   -0.42156E-02   -0.56920E-02  3808   0.423E-01    0.369E-01
DAV:   4    -0.296852163091E+03    0.48271E-02   -0.49467E-02  3808   0.382E-01    0.179E-01
DAV:   5    -0.296851624506E+03    0.53859E-03   -0.55882E-03  3520   0.140E-01    0.117E-01
DAV:   6    -0.296851727489E+03   -0.10298E-03   -0.17404E-03  3440   0.692E-02    0.986E-02
DAV:   7    -0.296851686012E+03    0.41477E-04   -0.57118E-04  2176   0.435E-02
  38 F= -.29685169E+03 E0= -.29683626E+03  d E =-.191048E+00
 curvature:  -0.92 expect dE=-0.140E+00 dE for cont linesearch -0.490E-01
 ZBRENT: increasing intervall
 opt :   1.6660  next Energy=  -296.939141 (dE=-0.279E+00)
 bond charge predicted
       N       E                     dE             d eps       ncg     rms          rms(c)
DAV:   1    -0.296829324532E+03    0.22403E-01   -0.11793E+01  2904   0.600E+00    0.298E+00
DAV:   2    -0.296917934919E+03   -0.88610E-01   -0.98347E-01  3400   0.184E+00    0.622E-01
DAV:   3    -0.296931520997E+03   -0.13586E-01   -0.19232E-01  3800   0.784E-01    0.773E-01
DAV:   4    -0.296915672928E+03    0.15848E-01   -0.18372E-01  3792   0.726E-01    0.392E-01
DAV:   5    -0.296912989593E+03    0.26833E-02   -0.24397E-02  3568   0.287E-01    0.246E-01
DAV:   6    -0.296913484937E+03   -0.49534E-03   -0.80620E-03  3464   0.144E-01    0.193E-01
DAV:   7    -0.296913208265E+03    0.27667E-03   -0.30180E-03  3576   0.902E-02    0.909E-02
DAV:   8    -0.296913223121E+03   -0.14856E-04   -0.81433E-04  2352   0.436E-02
  39 F= -.29691322E+03 E0= -.29689762E+03  d E =-.252585E+00
 curvature:  -1.65 expect dE=-0.248E+00 dE for cont linesearch -0.111E-01
 ZBRENT: bracketing found
 ZBRENT: interpolating
 opt :   1.4274  next Energy=  -296.920948 (dE=-0.260E+00)
 bond charge predicted
       N       E                     dE             d eps       ncg     rms          rms(c)
DAV:   1    -0.296913346573E+03   -0.13831E-03   -0.83622E-01  2904   0.162E+00    0.657E-01
DAV:   2    -0.296920176240E+03   -0.68297E-02   -0.75893E-02  3392   0.505E-01    0.187E-01
DAV:   3    -0.296922232731E+03   -0.20565E-02   -0.27544E-02  3872   0.277E-01    0.255E-01
DAV:   4    -0.296919778068E+03    0.24547E-02   -0.22598E-02  3872   0.245E-01    0.130E-01
DAV:   5    -0.296919629640E+03    0.14843E-03   -0.11986E-03  3272   0.681E-02    0.968E-02
DAV:   6    -0.296919643288E+03   -0.13649E-04   -0.47008E-04  2176   0.381E-02
  40 F= -.29691964E+03 E0= -.29690418E+03  d E =-.259005E+00
 curvature:  -1.15 expect dE=-0.135E+00 dE for cont linesearch -0.183E-03
 trial: gam= 0.12270 g(F)=  0.118E+00 g(S)=  0.000E+00 ort = 0.996E-02 (trialstep = 0.346E+00)
 search vector abs. value=  0.129E+00
 bond charge predicted
       N       E                     dE             d eps       ncg     rms          rms(c)
DAV:   1    -0.296957510870E+03   -0.37881E-01   -0.26870E-01  2816   0.946E-01    0.299E-01
DAV:   2    -0.296959229007E+03   -0.17181E-02   -0.20820E-02  3504   0.265E-01    0.117E-01
DAV:   3    -0.296959251020E+03   -0.22013E-04   -0.31527E-03  3648   0.925E-02    0.106E-01
DAV:   4    -0.296959121461E+03    0.12956E-03   -0.13187E-03  2624   0.624E-02    0.643E-02
DAV:   5    -0.296959282088E+03   -0.16063E-03   -0.16823E-03  2512   0.693E-02    0.774E-02
DAV:   6    -0.296959098798E+03    0.18329E-03   -0.11631E-03  2408   0.545E-02    0.254E-02
DAV:   7    -0.296959104884E+03   -0.60861E-05   -0.13234E-04  1608   0.204E-02
  41 F= -.29695910E+03 E0= -.29694354E+03  d E =-.394616E-01
 ZBRENT: can't locate minimum, use default step
 trial-energy change:   -0.039462  1 .order   -0.039472   -0.041089   -0.037854
 step:   1.3843(harm=  4.3955)  dis= 0.03903  next Energy=  -297.180589 (dE=-0.261E+00)
 bond charge predicted
       N       E                     dE             d eps       ncg     rms          rms(c)
DAV:   1    -0.297043009973E+03   -0.83911E-01   -0.24091E+00  2816   0.284E+00    0.881E-01
DAV:   2    -0.297058375168E+03   -0.15365E-01   -0.17921E-01  3480   0.783E-01    0.314E-01
DAV:   3    -0.297060892025E+03   -0.25169E-02   -0.37554E-02  3848   0.322E-01    0.364E-01
DAV:   4    -0.297057957236E+03    0.29348E-02   -0.30733E-02  3792   0.289E-01    0.202E-01
DAV:   5    -0.297057717878E+03    0.23936E-03   -0.57342E-03  3672   0.136E-01    0.143E-01
DAV:   6    -0.297057828944E+03   -0.11107E-03   -0.26277E-03  3464   0.792E-02    0.977E-02
DAV:   7    -0.297057635230E+03    0.19371E-03   -0.13428E-03  2472   0.579E-02    0.380E-02
DAV:   8    -0.297057642015E+03   -0.67852E-05   -0.16117E-04  1648   0.262E-02
  42 F= -.29705764E+03 E0= -.29704185E+03  d E =-.137999E+00
 curvature:  -1.07 expect dE=-0.657E-01 dE for cont linesearch -0.535E-01
 ZBRENT: increasing intervall
 opt :   3.4606  next Energy=  -297.164432 (dE=-0.245E+00)
 bond charge predicted
       N       E                     dE             d eps       ncg     rms          rms(c)
DAV:   1    -0.297105253875E+03   -0.47619E-01   -0.96222E+00  2816   0.567E+00    0.180E+00
DAV:   2    -0.297168865866E+03   -0.63612E-01   -0.73428E-01  3496   0.158E+00    0.688E-01
DAV:   3    -0.297196106630E+03   -0.27241E-01   -0.33295E-01  3840   0.905E-01    0.988E-01
DAV:   4    -0.297164547018E+03    0.31560E-01   -0.23255E-01  3840   0.767E-01    0.399E-01
DAV:   5    -0.297163934871E+03    0.61215E-03   -0.21161E-02  3696   0.270E-01    0.351E-01
DAV:   6    -0.297164160244E+03   -0.22537E-03   -0.47990E-03  3352   0.119E-01    0.251E-01
DAV:   7    -0.297163924622E+03    0.23562E-03   -0.30155E-03  3352   0.859E-02    0.115E-01
DAV:   8    -0.297163883916E+03    0.40705E-04   -0.20200E-03  3104   0.623E-02    0.630E-02
DAV:   9    -0.297163827830E+03    0.56086E-04   -0.42474E-04  2008   0.371E-02
  43 F= -.29716383E+03 E0= -.29714743E+03  d E =-.244185E+00
 curvature:  -2.14 expect dE=-0.112E+00 dE for cont linesearch -0.815E-02
 ZBRENT: extrapolating
 opt :   4.2533  next Energy=  -297.172632 (dE=-0.253E+00)
 bond charge predicted
       N       E                     dE             d eps       ncg     rms          rms(c)
DAV:   1    -0.297163789793E+03    0.94124E-04   -0.14047E+00  2816   0.216E+00    0.666E-01
DAV:   2    -0.297173161245E+03   -0.93715E-02   -0.10795E-01  3504   0.604E-01    0.272E-01
DAV:   3    -0.297178474742E+03   -0.53135E-02   -0.62469E-02  3872   0.382E-01    0.419E-01
DAV:   4    -0.297172402008E+03    0.60727E-02   -0.43845E-02  3872   0.323E-01    0.145E-01
DAV:   5    -0.297172316913E+03    0.85094E-04   -0.31168E-03  3592   0.106E-01    0.123E-01
DAV:   6    -0.297172353665E+03   -0.36751E-04   -0.60788E-04  2552   0.456E-02
  44 F= -.29717235E+03 E0= -.29715559E+03  d E =-.252710E+00
 curvature:  -2.31 expect dE=-0.167E+00 dE for cont linesearch -0.678E-06
 trial: gam= 0.63399 g(F)=  0.726E-01 g(S)=  0.000E+00 ort =-0.195E-03 (trialstep = 0.113E+01)
 search vector abs. value=  0.124E+00
 bond charge predicted
       N       E                     dE             d eps       ncg     rms          rms(c)
DAV:   1    -0.297221200991E+03   -0.48884E-01   -0.25902E+00  2816   0.290E+00    0.972E-01
DAV:   2    -0.297237192218E+03   -0.15991E-01   -0.18241E-01  3512   0.803E-01    0.301E-01
DAV:   3    -0.297237034337E+03    0.15788E-03   -0.97245E-03  3760   0.190E-01    0.259E-01
DAV:   4    -0.297237605604E+03   -0.57127E-03   -0.11353E-02  3936   0.153E-01    0.233E-01
DAV:   5    -0.297237061114E+03    0.54449E-03   -0.13918E-02  3464   0.172E-01    0.169E-01
DAV:   6    -0.297236949128E+03    0.11199E-03   -0.66152E-03  3808   0.128E-01    0.110E-01
DAV:   7    -0.297236660905E+03    0.28822E-03   -0.25684E-03  3440   0.754E-02    0.449E-02
DAV:   8    -0.297236660711E+03    0.19454E-06   -0.20792E-04  1688   0.273E-02
  45 F= -.29723666E+03 E0= -.29721938E+03  d E =-.643070E-01
 trial-energy change:   -0.064307  1 .order   -0.064325   -0.081698   -0.046953
 step:   2.6512(harm=  2.6512)  dis= 0.06211  next Energy=  -297.268405 (dE=-0.961E-01)
 bond charge predicted
       N       E                     dE             d eps       ncg     rms          rms(c)
DAV:   1    -0.297239884185E+03   -0.32233E-02   -0.47382E+00  2816   0.392E+00    0.132E+00
DAV:   2    -0.297269491241E+03   -0.29607E-01   -0.33641E-01  3528   0.109E+00    0.397E-01
DAV:   3    -0.297270763704E+03   -0.12725E-02   -0.31453E-02  3736   0.320E-01    0.408E-01
DAV:   4    -0.297270340322E+03    0.42338E-03   -0.44970E-02  3728   0.316E-01    0.325E-01
DAV:   5    -0.297268577759E+03    0.17626E-02   -0.19294E-02  3728   0.206E-01    0.200E-01
DAV:   6    -0.297268937065E+03   -0.35931E-03   -0.83889E-03  3456   0.122E-01    0.160E-01
DAV:   7    -0.297268421103E+03    0.51596E-03   -0.36508E-03  3544   0.820E-02    0.625E-02
DAV:   8    -0.297268419929E+03    0.11744E-05   -0.31061E-04  2096   0.348E-02
  46 F= -.29726842E+03 E0= -.29725053E+03  d E =-.960663E-01
 curvature:  -2.27 expect dE=-0.130E+00 dE for cont linesearch -0.706E-06
 trial: gam= 0.75879 g(F)=  0.569E-01 g(S)=  0.000E+00 ort =-0.196E-03 (trialstep = 0.139E+01)
 search vector abs. value=  0.128E+00
 bond charge predicted
       N       E                     dE             d eps       ncg     rms          rms(c)
DAV:   1    -0.297302164462E+03   -0.33743E-01   -0.38100E+00  2816   0.354E+00    0.116E+00
DAV:   2    -0.297326327254E+03   -0.24163E-01   -0.26684E-01  3480   0.979E-01    0.363E-01
DAV:   3    -0.297325833575E+03    0.49368E-03   -0.10842E-02  3800   0.220E-01    0.285E-01
DAV:   4    -0.297327264377E+03   -0.14308E-02   -0.14889E-02  3968   0.184E-01    0.273E-01
DAV:   5    -0.297326103406E+03    0.11610E-02   -0.24054E-02  3920   0.225E-01    0.180E-01
DAV:   6    -0.297325612833E+03    0.49057E-03   -0.64684E-03  3592   0.118E-01    0.898E-02
DAV:   7    -0.297325598485E+03    0.14348E-04   -0.15504E-03  3336   0.582E-02    0.769E-02
DAV:   8    -0.297325554212E+03    0.44273E-04   -0.22262E-04  1616   0.280E-02
  47 F= -.29732555E+03 E0= -.29730734E+03  d E =-.571343E-01
 trial-energy change:   -0.057134  1 .order   -0.056572   -0.078871   -0.034273
 step:   2.3353(harm=  2.4558)  dis= 0.05082  next Energy=  -297.337415 (dE=-0.690E-01)
 bond charge predicted
       N       E                     dE             d eps       ncg     rms          rms(c)
DAV:   1    -0.297327882819E+03   -0.22843E-02   -0.17772E+00  2824   0.242E+00    0.817E-01
DAV:   2    -0.297339342134E+03   -0.11459E-01   -0.12598E-01  3464   0.674E-01    0.256E-01
DAV:   3    -0.297340575292E+03   -0.12332E-02   -0.18178E-02  3768   0.232E-01    0.283E-01
DAV:   4    -0.297339732756E+03    0.84254E-03   -0.26361E-02  3744   0.239E-01    0.207E-01
DAV:   5    -0.297338846910E+03    0.88585E-03   -0.65041E-03  3736   0.131E-01    0.839E-02
DAV:   6    -0.297338940639E+03   -0.93729E-04   -0.12189E-03  3080   0.638E-02    0.579E-02
DAV:   7    -0.297338932360E+03    0.82788E-05   -0.13595E-04  1600   0.219E-02
  48 F= -.29733893E+03 E0= -.29732053E+03  d E =-.705124E-01
 curvature:  -2.74 expect dE=-0.562E-01 dE for cont linesearch -0.188E-03
 trial: gam= 0.28364 g(F)=  0.205E-01 g(S)=  0.000E+00 ort = 0.297E-02 (trialstep = 0.158E+01)
 search vector abs. value=  0.325E-01
 bond charge predicted
       N       E                     dE             d eps       ncg     rms          rms(c)
DAV:   1    -0.297354684780E+03   -0.15744E-01   -0.12904E+00  2816   0.209E+00    0.682E-01
DAV:   2    -0.297368260110E+03   -0.13575E-01   -0.13717E-01  3528   0.651E-01    0.513E-01
DAV:   3    -0.297382179832E+03   -0.13920E-01   -0.27194E-01  3968   0.740E-01    0.732E-01
DAV:   4    -0.297362492053E+03    0.19688E-01   -0.12436E-01  3936   0.505E-01    0.145E-01
DAV:   5    -0.297362468822E+03    0.23231E-04   -0.44560E-03  3248   0.128E-01    0.162E-01
DAV:   6    -0.297362527115E+03   -0.58293E-04   -0.11373E-03  3168   0.573E-02    0.119E-01
DAV:   7    -0.297362478051E+03    0.49064E-04   -0.41099E-04  1832   0.291E-02
  49 F= -.29736248E+03 E0= -.29734415E+03  d E =-.235457E-01
 trial-energy change:   -0.023546  1 .order   -0.023803   -0.033742   -0.013863
 step:   2.6784(harm=  2.6784)  dis= 0.03094  next Energy=  -297.367569 (dE=-0.286E-01)
 bond charge predicted
       N       E                     dE             d eps       ncg     rms          rms(c)
DAV:   1    -0.297363167097E+03   -0.63998E-03   -0.61590E-01  2832   0.145E+00    0.476E-01
DAV:   2    -0.297369780209E+03   -0.66131E-02   -0.66608E-02  3544   0.453E-01    0.374E-01
DAV:   3    -0.297376222604E+03   -0.64424E-02   -0.13289E-01  3952   0.521E-01    0.512E-01
DAV:   4    -0.297366821693E+03    0.94009E-02   -0.62027E-02  3576   0.353E-01    0.101E-01
DAV:   5    -0.297366785423E+03    0.36270E-04   -0.22763E-03  3264   0.903E-02    0.107E-01
DAV:   6    -0.297366815904E+03   -0.30481E-04   -0.38877E-04  2304   0.380E-02
  50 F= -.29736682E+03 E0= -.29734859E+03  d E =-.278835E-01
 curvature:  -2.04 expect dE=-0.258E-01 dE for cont linesearch -0.147E-04
 trial: gam= 0.68160 g(F)=  0.127E-01 g(S)=  0.000E+00 ort =-0.484E-03 (trialstep = 0.180E+01)
 search vector abs. value=  0.271E-01
 bond charge predicted
       N       E                     dE             d eps       ncg     rms          rms(c)
DAV:   1    -0.297371294444E+03   -0.45090E-02   -0.15161E+00  2832   0.220E+00    0.713E-01
DAV:   2    -0.297387417643E+03   -0.16123E-01   -0.16532E-01  3520   0.706E-01    0.577E-01
DAV:   3    -0.297401136709E+03   -0.13719E-01   -0.30958E-01  3936   0.785E-01    0.759E-01
DAV:   4    -0.297380223504E+03    0.20913E-01   -0.12906E-01  4000   0.519E-01    0.155E-01
DAV:   5    -0.297380254448E+03   -0.30944E-04   -0.53849E-03  3264   0.138E-01    0.178E-01
DAV:   6    -0.297380288726E+03   -0.34278E-04   -0.13704E-03  3272   0.616E-02    0.135E-01
DAV:   7    -0.297380219729E+03    0.68997E-04   -0.35213E-04  1800   0.284E-02
  51 F= -.29738022E+03 E0= -.29736208E+03  d E =-.134038E-01
 trial-energy change:   -0.013404  1 .order   -0.013830   -0.022183   -0.005477
 step:   2.5512(harm=  2.3876)  dis= 0.03887  next Energy=  -297.381336 (dE=-0.145E-01)
 bond charge predicted
       N       E                     dE             d eps       ncg     rms          rms(c)
DAV:   1    -0.297379248547E+03    0.10402E-02   -0.25883E-01  2848   0.909E-01    0.295E-01
DAV:   2    -0.297381557352E+03   -0.23088E-02   -0.24879E-02  3544   0.280E-01    0.210E-01
DAV:   3    -0.297384382216E+03   -0.28249E-02   -0.44944E-02  3984   0.302E-01    0.324E-01
DAV:   4    -0.297380758815E+03    0.36234E-02   -0.24097E-02  3304   0.218E-01    0.660E-02
DAV:   5    -0.297380749248E+03    0.95668E-05   -0.97316E-04  2656   0.570E-02
  52 F= -.29738075E+03 E0= -.29736268E+03  d E =-.139333E-01
 curvature:  -2.42 expect dE=-0.280E-01 dE for cont linesearch -0.107E-03
 trial: gam= 0.88693 g(F)=  0.115E-01 g(S)=  0.000E+00 ort =-0.109E-02 (trialstep = 0.171E+01)
 search vector abs. value=  0.309E-01
 bond charge predicted
       N       E                     dE             d eps       ncg     rms          rms(c)
DAV:   1    -0.297383508833E+03   -0.27500E-02   -0.16246E+00  2824   0.221E+00    0.687E-01
DAV:   2    -0.297400886829E+03   -0.17378E-01   -0.17615E-01  3520   0.718E-01    0.597E-01
DAV:   3    -0.297411642295E+03   -0.10755E-01   -0.30170E-01  3888   0.778E-01    0.734E-01
DAV:   4    -0.297392627127E+03    0.19015E-01   -0.11021E-01  3936   0.487E-01    0.160E-01
DAV:   5    -0.297392772540E+03   -0.14541E-03   -0.54791E-03  3280   0.133E-01    0.188E-01
DAV:   6    -0.297392751291E+03    0.21249E-04   -0.12870E-03  3056   0.566E-02    0.150E-01
DAV:   7    -0.297392688538E+03    0.62752E-04   -0.24128E-04  1808   0.273E-02
  53 F= -.29739269E+03 E0= -.29737467E+03  d E =-.119393E-01
 trial-energy change:   -0.011939  1 .order   -0.012250   -0.018067   -0.006432
 step:   2.6524(harm=  2.6524)  dis= 0.05394  next Energy=  -297.394776 (dE=-0.140E-01)
 bond charge predicted
       N       E                     dE             d eps       ncg     rms          rms(c)
DAV:   1    -0.297391343859E+03    0.14074E-02   -0.48553E-01  2832   0.121E+00    0.388E-01
DAV:   2    -0.297395551229E+03   -0.42074E-02   -0.44878E-02  3544   0.372E-01    0.282E-01
DAV:   3    -0.297400417212E+03   -0.48660E-02   -0.78322E-02  3968   0.397E-01    0.430E-01
DAV:   4    -0.297394055149E+03    0.63621E-02   -0.40079E-02  3456   0.286E-01    0.844E-02
DAV:   5    -0.297394039733E+03    0.15415E-04   -0.16430E-03  3264   0.745E-02    0.788E-02
DAV:   6    -0.297394062778E+03   -0.23044E-04   -0.43752E-04  2040   0.345E-02
  54 F= -.29739406E+03 E0= -.29737605E+03  d E =-.133135E-01
 curvature:  -3.88 expect dE=-0.249E-01 dE for cont linesearch -0.115E-04
 trial: gam= 0.42121 g(F)=  0.643E-02 g(S)=  0.000E+00 ort =-0.303E-03 (trialstep = 0.190E+01)
 search vector abs. value=  0.117E-01
 bond charge predicted
       N       E                     dE             d eps       ncg     rms          rms(c)
DAV:   1    -0.297397812129E+03   -0.37724E-02   -0.76725E-01  2816   0.152E+00    0.500E-01
DAV:   2    -0.297413050368E+03   -0.15238E-01   -0.14412E-01  3576   0.578E-01    0.653E-01
DAV:   3    -0.297408205487E+03    0.48449E-02   -0.20114E-01  3824   0.630E-01    0.442E-01
DAV:   4    -0.297401808630E+03    0.63969E-02   -0.36133E-02  3824   0.298E-01    0.102E-01
DAV:   5    -0.297401951129E+03   -0.14250E-03   -0.27914E-03  3152   0.102E-01    0.135E-01
DAV:   6    -0.297401951147E+03   -0.17433E-07   -0.46719E-04  2128   0.379E-02
  55 F= -.29740195E+03 E0= -.29738415E+03  d E =-.788837E-02
 trial-energy change:   -0.007888  1 .order   -0.008190   -0.011947   -0.004433
 step:   3.0164(harm=  3.0164)  dis= 0.03464  next Energy=  -297.403561 (dE=-0.950E-02)
 bond charge predicted
       N       E                     dE             d eps       ncg     rms          rms(c)
DAV:   1    -0.297401675806E+03    0.27532E-03   -0.26668E-01  2816   0.897E-01    0.297E-01
DAV:   2    -0.297409555855E+03   -0.78800E-02   -0.70924E-02  3640   0.391E-01    0.486E-01
DAV:   3    -0.297404356066E+03    0.51998E-02   -0.84648E-02  3808   0.412E-01    0.238E-01
DAV:   4    -0.297402853677E+03    0.15024E-02   -0.74380E-03  3640   0.146E-01    0.817E-02
DAV:   5    -0.297402934365E+03   -0.80688E-04   -0.10430E-03  3184   0.594E-02    0.868E-02
DAV:   6    -0.297402918375E+03    0.15989E-04   -0.25147E-04  1600   0.252E-02
  56 F= -.29740292E+03 E0= -.29738516E+03  d E =-.885560E-02
 curvature:  -2.79 expect dE=-0.101E-01 dE for cont linesearch -0.419E-05
 trial: gam= 0.58004 g(F)=  0.363E-02 g(S)=  0.000E+00 ort =-0.132E-03 (trialstep = 0.212E+01)
 search vector abs. value=  0.740E-02
 bond charge predicted
       N       E                     dE             d eps       ncg     rms          rms(c)
DAV:   1    -0.297403714711E+03   -0.78035E-03   -0.58055E-01  2816   0.136E+00    0.431E-01
DAV:   2    -0.297413482099E+03   -0.97674E-02   -0.91871E-02  3584   0.485E-01    0.517E-01
DAV:   3    -0.297412469354E+03    0.10127E-02   -0.14096E-01  3856   0.534E-01    0.421E-01
DAV:   4    -0.297406721848E+03    0.57475E-02   -0.30557E-02  3840   0.268E-01    0.905E-02
DAV:   5    -0.297406830778E+03   -0.10893E-03   -0.16354E-03  3144   0.830E-02    0.121E-01
DAV:   6    -0.297406846491E+03   -0.15713E-04   -0.17519E-04  1760   0.272E-02
  57 F= -.29740685E+03 E0= -.29738913E+03  d E =-.392812E-02
 trial-energy change:   -0.003928  1 .order   -0.004132   -0.007545   -0.000720
 step:   2.3446(harm=  2.3446)  dis= 0.01711  next Energy=  -297.407089 (dE=-0.417E-02)
 bond charge predicted
       N       E                     dE             d eps       ncg     rms          rms(c)
DAV:   1    -0.297406831648E+03   -0.86986E-06   -0.64195E-03  2944   0.143E-01    0.657E-02
DAV:   2    -0.297407340541E+03   -0.50889E-03   -0.44121E-03  3120   0.970E-02    0.129E-01
DAV:   3    -0.297406865474E+03    0.47507E-03   -0.45136E-03  2960   0.984E-02    0.555E-02
DAV:   4    -0.297406825852E+03    0.39623E-04   -0.47733E-04  1912   0.332E-02
  58 F= -.29740683E+03 E0= -.29738900E+03  d E =-.390748E-02
 curvature:  -2.44 expect dE=-0.547E-02 dE for cont linesearch -0.398E-05
 trial: gam= 0.58936 g(F)=  0.224E-02 g(S)=  0.000E+00 ort =-0.110E-03 (trialstep = 0.217E+01)
 search vector abs. value=  0.468E-02
 bond charge predicted
       N       E                     dE             d eps       ncg     rms          rms(c)
DAV:   1    -0.297407585718E+03   -0.72024E-03   -0.35829E-01  2816   0.107E+00    0.333E-01
DAV:   2    -0.297410718444E+03   -0.31327E-02   -0.32511E-02  3552   0.324E-01    0.248E-01
DAV:   3    -0.297414344964E+03   -0.36265E-02   -0.56750E-02  3904   0.349E-01    0.381E-01
DAV:   4    -0.297409484137E+03    0.48608E-02   -0.27115E-02  3352   0.240E-01    0.783E-02
DAV:   5    -0.297409511571E+03   -0.27435E-04   -0.10449E-03  2920   0.593E-02    0.816E-02
DAV:   6    -0.297409513482E+03   -0.19102E-05   -0.27343E-04  1744   0.270E-02
  59 F= -.29740951E+03 E0= -.29739174E+03  d E =-.268763E-02
 trial-energy change:   -0.002688  1 .order   -0.002777   -0.004714   -0.000840
 step:   2.6350(harm=  2.6350)  dis= 0.01354  next Energy=  -297.409694 (dE=-0.287E-02)
 bond charge predicted
       N       E                     dE             d eps       ncg     rms          rms(c)
DAV:   1    -0.297409486369E+03    0.25202E-04   -0.16729E-02  2848   0.232E-01    0.731E-02
DAV:   2    -0.297409772635E+03   -0.28627E-03   -0.26055E-03  3608   0.862E-02    0.966E-02
DAV:   3    -0.297409656530E+03    0.11611E-03   -0.33032E-03  2856   0.863E-02    0.642E-02
DAV:   4    -0.297409557083E+03    0.99447E-04   -0.64721E-04  2024   0.400E-02
  60 F= -.29740956E+03 E0= -.29739172E+03  d E =-.273123E-02
 curvature:  -2.83 expect dE=-0.454E-02 dE for cont linesearch -0.388E-05
 trial: gam= 0.73714 g(F)=  0.160E-02 g(S)=  0.000E+00 ort =-0.801E-04 (trialstep = 0.226E+01)
 search vector abs. value=  0.403E-02
 bond charge predicted
       N       E                     dE             d eps       ncg     rms          rms(c)
DAV:   1    -0.297410357229E+03   -0.70070E-03   -0.31471E-01  2816   0.101E+00    0.303E-01
DAV:   2    -0.297414504704E+03   -0.41475E-02   -0.38947E-02  3576   0.331E-01    0.333E-01
DAV:   3    -0.297414859483E+03   -0.35478E-03   -0.60148E-02  3840   0.360E-01    0.303E-01
DAV:   4    -0.297411891164E+03    0.29683E-02   -0.17533E-02  3240   0.199E-01    0.710E-02
DAV:   5    -0.297411928529E+03   -0.37365E-04   -0.13469E-03  2952   0.640E-02    0.844E-02
DAV:   6    -0.297411911665E+03    0.16865E-04   -0.29718E-04  1600   0.287E-02
  61 F= -.29741191E+03 E0= -.29739428E+03  d E =-.235458E-02
 trial-energy change:   -0.002355  1 .order   -0.002404   -0.003486   -0.001321
 step:   3.6383(harm=  3.6383)  dis= 0.02347  next Energy=  -297.412364 (dE=-0.281E-02)
 bond charge predicted
       N       E                     dE             d eps       ncg     rms          rms(c)
DAV:   1    -0.297411662445E+03    0.26608E-03   -0.11695E-01  2816   0.618E-01    0.185E-01
DAV:   2    -0.297413793479E+03   -0.21310E-02   -0.18884E-02  3632   0.224E-01    0.253E-01
DAV:   3    -0.297412898025E+03    0.89545E-03   -0.24605E-02  3856   0.233E-01    0.159E-01
DAV:   4    -0.297412172210E+03    0.72582E-03   -0.42794E-03  2856   0.103E-01    0.496E-02
DAV:   5    -0.297412211975E+03   -0.39765E-04   -0.59488E-04  2184   0.425E-02
  62 F= -.29741221E+03 E0= -.29739463E+03  d E =-.265489E-02
 curvature:  -4.75 expect dE=-0.109E-01 dE for cont linesearch -0.742E-05
 trial: gam= 1.46446 g(F)=  0.231E-02 g(S)=  0.000E+00 ort =-0.794E-04 (trialstep = 0.953E+00)
 search vector abs. value=  0.107E-01
 bond charge predicted
       N       E                     dE             d eps       ncg     rms          rms(c)
DAV:   1    -0.297413785205E+03   -0.16130E-02   -0.13235E-01  2816   0.654E-01    0.198E-01
DAV:   2    -0.297419048838E+03   -0.52636E-02   -0.43681E-02  3856   0.311E-01    0.400E-01
DAV:   3    -0.297414439016E+03    0.46098E-02   -0.43890E-02  3808   0.309E-01    0.130E-01
DAV:   4    -0.297414159713E+03    0.27930E-03   -0.23645E-03  3328   0.876E-02    0.685E-02
DAV:   5    -0.297414147773E+03    0.11940E-04   -0.49326E-04  2112   0.373E-02
  63 F= -.29741415E+03 E0= -.29739671E+03  d E =-.193580E-02
 ZBRENT: can't locate minimum, use default step
 trial-energy change:   -0.001936  1 .order   -0.001983   -0.002087   -0.001878
 step:   3.8137(harm=  9.5228)  dis= 0.05082  next Energy=  -297.422635 (dE=-0.104E-01)
 bond charge predicted
       N       E                     dE             d eps       ncg     rms          rms(c)
DAV:   1    -0.297415005183E+03   -0.84547E-03   -0.11859E+00  2816   0.196E+00    0.565E-01
DAV:   2    -0.297445967732E+03   -0.30963E-01   -0.28514E-01  3776   0.799E-01    0.960E-01
DAV:   3    -0.297422808062E+03    0.23160E-01   -0.31599E-01  3808   0.812E-01    0.389E-01
DAV:   4    -0.297418919420E+03    0.38886E-02   -0.22603E-02  3560   0.264E-01    0.165E-01
DAV:   5    -0.297418979489E+03   -0.60069E-04   -0.45438E-03  3464   0.111E-01    0.158E-01
DAV:   6    -0.297418931535E+03    0.47954E-04   -0.55417E-04  2408   0.435E-02
  64 F= -.29741893E+03 E0= -.29740213E+03  d E =-.671956E-02
 curvature: -12.96 expect dE=-0.617E-01 dE for cont linesearch -0.297E-02
 ZBRENT: increasing intervall
 opt :   9.5342  next Energy=  -297.425585 (dE=-0.134E-01)
 bond charge predicted
       N       E                     dE             d eps       ncg     rms          rms(c)
DAV:   1    -0.297408831879E+03    0.10148E-01   -0.47485E+00  2816   0.393E+00    0.114E+00
DAV:   2    -0.297514019284E+03   -0.10519E+00   -0.11292E+00  3744   0.158E+00    0.172E+00
DAV:   3    -0.297440716093E+03    0.73303E-01   -0.13234E+00  3824   0.161E+00    0.712E-01
DAV:   4    -0.297424585321E+03    0.16131E-01   -0.70735E-02  3576   0.527E-01    0.337E-01
DAV:   5    -0.297424389966E+03    0.19535E-03   -0.16408E-02  3504   0.220E-01    0.312E-01
DAV:   6    -0.297424211768E+03    0.17820E-03   -0.23586E-03  3400   0.869E-02    0.233E-01
DAV:   7    -0.297424351439E+03   -0.13967E-03   -0.65952E-04  2192   0.412E-02    0.178E-01
DAV:   8    -0.297424146061E+03    0.20538E-03   -0.18231E-03  3000   0.560E-02    0.568E-02
DAV:   9    -0.297424122448E+03    0.23613E-04   -0.29125E-04  1984   0.335E-02
  65 F= -.29742412E+03 E0= -.29740855E+03  d E =-.119105E-01
 curvature: -29.05 expect dE=-0.680E+00 dE for cont linesearch -0.721E-03
 ZBRENT: extrapolating
 opt :  12.3425  next Energy=  -297.424847 (dE=-0.126E-01)
 bond charge predicted
       N       E                     dE             d eps       ncg     rms          rms(c)
DAV:   1    -0.297420705709E+03    0.34404E-02   -0.11536E+00  2816   0.194E+00    0.563E-01
DAV:   2    -0.297441840747E+03   -0.21135E-01   -0.20834E-01  3720   0.751E-01    0.738E-01
DAV:   3    -0.297429577824E+03    0.12263E-01   -0.25250E-01  3824   0.779E-01    0.364E-01
DAV:   4    -0.297424795659E+03    0.47822E-02   -0.23054E-02  3776   0.289E-01    0.134E-01
DAV:   5    -0.297424921447E+03   -0.12579E-03   -0.43223E-03  3416   0.113E-01    0.148E-01
DAV:   6    -0.297424886781E+03    0.34666E-04   -0.54244E-04  2360   0.446E-02
  66 F= -.29742489E+03 E0= -.29741023E+03  d E =-.126748E-01
 curvature: -29.16 expect dE=-0.117E+01 dE for cont linesearch -0.149E-03
 trial: gam=17.37492 g(F)=  0.402E-01 g(S)=  0.000E+00 ort = 0.234E-03 (trialstep = 0.105E-01)
 search vector abs. value=  0.328E+01
 bond charge predicted
       N       E                     dE             d eps       ncg     rms          rms(c)
DAV:   1    -0.297425369254E+03   -0.44781E-03   -0.48937E-03  2944   0.126E-01    0.974E-02
DAV:   2    -0.297426746086E+03   -0.13768E-02   -0.12604E-02  3280   0.169E-01    0.184E-01
DAV:   3    -0.297425305114E+03    0.14410E-02   -0.10660E-02  3256   0.160E-01    0.579E-02
DAV:   4    -0.297425320497E+03   -0.15383E-04   -0.67720E-04  2280   0.433E-02
  67 F= -.29742532E+03 E0= -.29741052E+03  d E =-.433716E-03
 ZBRENT: can't locate minimum, use default step
 trial-energy change:   -0.000434  1 .order   -0.000448   -0.000467   -0.000430
 step:   0.0422(harm=  0.1330)  dis= 0.01004  next Energy=  -297.427829 (dE=-0.294E-02)
 bond charge predicted
       N       E                     dE             d eps       ncg     rms          rms(c)
DAV:   1    -0.297426436762E+03   -0.11316E-02   -0.44549E-02  2832   0.377E-01    0.101E-01
DAV:   2    -0.297427338256E+03   -0.90149E-03   -0.90199E-03  3752   0.156E-01    0.149E-01
DAV:   3    -0.297426678111E+03    0.66014E-03   -0.85066E-03  3744   0.151E-01    0.592E-02
DAV:   4    -0.297426585750E+03    0.92361E-04   -0.66584E-04  2296   0.497E-02
  68 F= -.29742659E+03 E0= -.29741201E+03  d E =-.169897E-02
 curvature:  -2.22 expect dE=-0.957E-01 dE for cont linesearch -0.118E-02
 ZBRENT: increasing intervall
 opt :   0.1055  next Energy=  -297.429300 (dE=-0.441E-02)
 bond charge predicted
       N       E                     dE             d eps       ncg     rms          rms(c)
DAV:   1    -0.297428697065E+03   -0.20190E-02   -0.17726E-01  2816   0.755E-01    0.207E-01
DAV:   2    -0.297431750563E+03   -0.30535E-02   -0.31332E-02  3688   0.295E-01    0.269E-01
DAV:   3    -0.297429816402E+03    0.19342E-02   -0.32459E-02  3808   0.295E-01    0.131E-01
DAV:   4    -0.297429280316E+03    0.53609E-03   -0.27956E-03  3296   0.104E-01    0.567E-02
DAV:   5    -0.297429316282E+03   -0.35965E-04   -0.53933E-04  2368   0.422E-02
  69 F= -.29742932E+03 E0= -.29741505E+03  d E =-.442950E-02
 curvature:  -5.10 expect dE=-0.243E+00 dE for cont linesearch -0.282E-02
 ZBRENT: increasing intervall
 opt :   0.2320  next Energy=  -297.434821 (dE=-0.993E-02)
 bond charge predicted
       N       E                     dE             d eps       ncg     rms          rms(c)
DAV:   1    -0.297432599643E+03   -0.33193E-02   -0.70933E-01  2816   0.151E+00    0.418E-01
DAV:   2    -0.297443117704E+03   -0.10518E-01   -0.11106E-01  3688   0.582E-01    0.488E-01
DAV:   3    -0.297437370742E+03    0.57470E-02   -0.12117E-01  3824   0.585E-01    0.257E-01
DAV:   4    -0.297434953358E+03    0.24174E-02   -0.12208E-02  3744   0.218E-01    0.111E-01
DAV:   5    -0.297435029725E+03   -0.76367E-04   -0.25639E-03  3464   0.869E-02    0.118E-01
DAV:   6    -0.297435011712E+03    0.18013E-04   -0.32348E-04  1904   0.365E-02
  70 F= -.29743501E+03 E0= -.29742161E+03  d E =-.101249E-01
 curvature:  -9.93 expect dE=-0.584E+00 dE for cont linesearch -0.713E-02
 ZBRENT: increasing intervall
 opt :   0.4851  next Energy=  -297.448797 (dE=-0.239E-01)
 bond charge predicted
       N       E                     dE             d eps       ncg     rms          rms(c)
DAV:   1    -0.297435114155E+03   -0.84430E-04   -0.28278E+00  2816   0.303E+00    0.841E-01
DAV:   2    -0.297461079331E+03   -0.25965E-01   -0.29623E-01  3592   0.104E+00    0.728E-01
DAV:   3    -0.297456769283E+03    0.43100E-02   -0.32137E-01  3824   0.104E+00    0.469E-01
DAV:   4    -0.297445944729E+03    0.10825E-01   -0.49571E-02  3840   0.478E-01    0.199E-01
DAV:   5    -0.297446252949E+03   -0.30822E-03   -0.92176E-03  3432   0.169E-01    0.230E-01
DAV:   6    -0.297446200361E+03    0.52588E-04   -0.15240E-03  3352   0.792E-02    0.190E-01
DAV:   7    -0.297446222684E+03   -0.22323E-04   -0.37958E-04  2280   0.381E-02
  71 F= -.29744622E+03 E0= -.29743445E+03  d E =-.213359E-01
 curvature: -19.19 expect dE=-0.164E+01 dE for cont linesearch -0.120E-01
 ZBRENT: increasing intervall
 opt :   0.9913  next Energy=  -297.467458 (dE=-0.426E-01)
 bond charge predicted
       N       E                     dE             d eps       ncg     rms          rms(c)
DAV:   1    -0.297392702702E+03    0.53498E-01   -0.11302E+01  2816   0.609E+00    0.189E+00
DAV:   2    -0.297456147051E+03   -0.63444E-01   -0.75047E-01  3488   0.169E+00    0.827E-01
DAV:   3    -0.297467586038E+03   -0.11439E-01   -0.29325E-01  3664   0.125E+00    0.686E-01
DAV:   4    -0.297450492586E+03    0.17093E-01   -0.12003E-01  3664   0.827E-01    0.392E-01
DAV:   5    -0.297449525627E+03    0.96696E-03   -0.25862E-02  3640   0.300E-01    0.415E-01
DAV:   6    -0.297449905386E+03   -0.37976E-03   -0.59290E-03  3760   0.162E-01    0.356E-01
DAV:   7    -0.297449440304E+03    0.46508E-03   -0.30132E-03  3504   0.129E-01    0.151E-01
DAV:   8    -0.297449452314E+03   -0.12010E-04   -0.17323E-03  3480   0.862E-02    0.138E-01
DAV:   9    -0.297449426136E+03    0.26178E-04   -0.57138E-04  3016   0.508E-02
  72 F= -.29744943E+03 E0= -.29743915E+03  d E =-.245394E-01
 curvature: -34.04 expect dE=-0.542E+01 dE for cont linesearch -0.220E-01
 ZBRENT: bracketing found
 ZBRENT: interpolating
 opt :   0.7360  next Energy=  -297.451899 (dE=-0.270E-01)
 bond charge predicted
       N       E                     dE             d eps       ncg     rms          rms(c)
DAV:   1    -0.297438053920E+03    0.11398E-01   -0.29043E+00  2816   0.310E+00    0.903E-01
DAV:   2    -0.297456016699E+03   -0.17963E-01   -0.20595E-01  3456   0.875E-01    0.452E-01
DAV:   3    -0.297458451664E+03   -0.24350E-02   -0.86825E-02  3696   0.648E-01    0.366E-01
DAV:   4    -0.297453762043E+03    0.46896E-02   -0.47600E-02  3696   0.434E-01    0.199E-01
DAV:   5    -0.297453119372E+03    0.64267E-03   -0.72751E-03  3608   0.175E-01    0.170E-01
DAV:   6    -0.297453396529E+03   -0.27716E-03   -0.26287E-03  3776   0.964E-02    0.145E-01
DAV:   7    -0.297453165717E+03    0.23081E-03   -0.12995E-03  3472   0.765E-02    0.674E-02
DAV:   8    -0.297453167091E+03   -0.13741E-05   -0.26107E-04  2240   0.313E-02
  73 F= -.29745317E+03 E0= -.29744226E+03  d E =-.282803E-01
 curvature:  -8.78 expect dE=-0.102E+01 dE for cont linesearch -0.335E-03
 trial: gam= 1.28185 g(F)=  0.116E+00 g(S)=  0.000E+00 ort = 0.112E-01 (trialstep = 0.922E-01)
 search vector abs. value=  0.554E+01
 bond charge predicted
       N       E                     dE             d eps       ncg     rms          rms(c)
DAV:   1    -0.297461218148E+03   -0.80524E-02   -0.65472E-01  2816   0.145E+00    0.421E-01
DAV:   2    -0.297465089625E+03   -0.38715E-02   -0.45562E-02  3432   0.415E-01    0.204E-01
DAV:   3    -0.297465682534E+03   -0.59291E-03   -0.19501E-02  3648   0.312E-01    0.165E-01
DAV:   4    -0.297464591433E+03    0.10911E-02   -0.83221E-03  3312   0.199E-01    0.855E-02
DAV:   5    -0.297464526327E+03    0.65106E-04   -0.14460E-03  3256   0.723E-02    0.840E-02
DAV:   6    -0.297464553854E+03   -0.27527E-04   -0.34318E-04  2136   0.408E-02
  74 F= -.29746455E+03 E0= -.29745411E+03  d E =-.113868E-01
 ZBRENT: can't locate minimum, use default step
 trial-energy change:   -0.011387  1 .order   -0.011402   -0.012052   -0.010752
 step:   0.3689(harm=  0.8554)  dis= 0.11168  next Energy=  -297.509055 (dE=-0.559E-01)
 bond charge predicted
       N       E                     dE             d eps       ncg     rms          rms(c)
DAV:   1    -0.297450365798E+03    0.14161E-01   -0.59082E+00  2816   0.437E+00    0.141E+00
DAV:   2    -0.297484785809E+03   -0.34420E-01   -0.38811E-01  3464   0.118E+00    0.512E-01
DAV:   3    -0.297486672930E+03   -0.18871E-02   -0.65876E-02  3600   0.617E-01    0.401E-01
DAV:   4    -0.297483752877E+03    0.29201E-02   -0.35362E-02  3600   0.435E-01    0.262E-01
DAV:   5    -0.297483054332E+03    0.69854E-03   -0.11915E-02  3592   0.205E-01    0.220E-01
DAV:   6    -0.297483368847E+03   -0.31452E-03   -0.38923E-03  3712   0.130E-01    0.153E-01
DAV:   7    -0.297482981733E+03    0.38711E-03   -0.24899E-03  3784   0.130E-01    0.640E-02
DAV:   8    -0.297483010065E+03   -0.28332E-04   -0.29248E-04  2336   0.353E-02
  75 F= -.29748301E+03 E0= -.29747299E+03  d E =-.298430E-01
 curvature: -10.76 expect dE=-0.177E+01 dE for cont linesearch -0.859E-05
 trial: gam= 0.29479 g(F)=  0.164E+00 g(S)=  0.000E+00 ort = 0.210E-02 (trialstep = 0.148E+00)
 search vector abs. value=  0.647E+00
 bond charge predicted
       N       E                     dE             d eps       ncg     rms          rms(c)
DAV:   1    -0.297504987209E+03   -0.22005E-01   -0.25752E-01  2816   0.880E-01    0.302E-01
DAV:   2    -0.297506732836E+03   -0.17456E-02   -0.19186E-02  3440   0.255E-01    0.874E-02
DAV:   3    -0.297506739994E+03   -0.71586E-05   -0.12782E-03  3488   0.870E-02    0.589E-02
DAV:   4    -0.297506726251E+03    0.13743E-04   -0.90168E-04  2704   0.688E-02
  76 F= -.29750673E+03 E0= -.29749672E+03  d E =-.237162E-01
 ZBRENT: can't locate minimum, use default step
 trial-energy change:   -0.023716  1 .order   -0.023628   -0.024318   -0.022938
 step:   0.5903(harm=  2.5998)  dis= 0.04996  next Energy=  -297.697217 (dE=-0.214E+00)
 bond charge predicted
       N       E                     dE             d eps       ncg     rms          rms(c)
DAV:   1    -0.297552538456E+03   -0.45798E-01   -0.23145E+00  2816   0.264E+00    0.963E-01
DAV:   2    -0.297568114138E+03   -0.15576E-01   -0.17000E-01  3424   0.765E-01    0.263E-01
DAV:   3    -0.297568115042E+03   -0.90300E-06   -0.12754E-02  3512   0.263E-01    0.196E-01
[...]
DAV:   6    -0.298366235336E+03   -0.25399E-03   -0.97717E-03  3616   0.136E-01    0.136E-01
DAV:   7    -0.298365724450E+03    0.51089E-03   -0.35408E-03  3544   0.973E-02    0.448E-02
DAV:   8    -0.298365742057E+03   -0.17607E-04   -0.23667E-04  2192   0.382E-02
  90 F= -.29836574E+03 E0= -.29835634E+03  d E =-.130705E+00
 curvature:  -2.12 expect dE=-0.195E+00 dE for cont linesearch -0.299E-03
 trial: gam= 0.69866 g(F)=  0.918E-01 g(S)=  0.000E+00 ort = 0.616E-02 (trialstep = 0.872E+00)
 search vector abs. value=  0.232E+00
 bond charge predicted
       N       E                     dE             d eps       ncg     rms          rms(c)
DAV:   1    -0.298414997304E+03   -0.49273E-01   -0.35462E+00  2816   0.307E+00    0.107E+00
DAV:   2    -0.298437713049E+03   -0.22716E-01   -0.26271E-01  3528   0.867E-01    0.347E-01
DAV:   3    -0.298436946962E+03    0.76609E-03   -0.85629E-03  3656   0.189E-01    0.299E-01
DAV:   4    -0.298436762725E+03    0.18424E-03   -0.11106E-03  3408   0.613E-02    0.193E-01
DAV:   5    -0.298436639341E+03    0.12338E-03   -0.67649E-04  3136   0.494E-02    0.733E-02
DAV:   6    -0.298436684623E+03   -0.45282E-04   -0.32640E-04  2384   0.454E-02
  91 F= -.29843668E+03 E0= -.29842736E+03  d E =-.709426E-01
 trial-energy change:   -0.070943  1 .order   -0.071332   -0.083774   -0.058891
 step:   2.9352(harm=  2.9352)  dis= 0.07123  next Energy=  -298.506765 (dE=-0.141E+00)
 bond charge predicted
       N       E                     dE             d eps       ncg     rms          rms(c)
DAV:   1    -0.298368969758E+03    0.67670E-01   -0.20001E+01  2816   0.731E+00    0.301E+00
DAV:   2    -0.298499724691E+03   -0.13075E+00   -0.15118E+00  3488   0.207E+00    0.906E-01
DAV:   3    -0.298495533157E+03    0.41915E-02   -0.49886E-02  3656   0.457E-01    0.878E-01
DAV:   4    -0.298494600130E+03    0.93303E-03   -0.66561E-03  3424   0.150E-01    0.605E-01
DAV:   5    -0.298494136454E+03    0.46368E-03   -0.74247E-03  3464   0.146E-01    0.292E-01
DAV:   6    -0.298494613676E+03   -0.47722E-03   -0.15698E-02  3760   0.190E-01    0.163E-01
DAV:   7    -0.298493791828E+03    0.82185E-03   -0.62640E-03  3728   0.114E-01    0.638E-02
DAV:   8    -0.298493818766E+03   -0.26939E-04   -0.26303E-04  2408   0.349E-02
  92 F= -.29849382E+03 E0= -.29848464E+03  d E =-.128077E+00
 curvature:  -3.54 expect dE=-0.298E+00 dE for cont linesearch -0.277E-02
 trial: gam= 0.91975 g(F)=  0.842E-01 g(S)=  0.000E+00 ort =-0.135E-01 (trialstep = 0.117E+01)
 search vector abs. value=  0.256E+00
 bond charge predicted
       N       E                     dE             d eps       ncg     rms          rms(c)
DAV:   1    -0.298517676613E+03   -0.23885E-01   -0.71308E+00  2816   0.418E+00    0.153E+00
DAV:   2    -0.298559091869E+03   -0.41415E-01   -0.49574E-01  3496   0.119E+00    0.518E-01
DAV:   3    -0.298558053634E+03    0.10382E-02   -0.17390E-02  3648   0.265E-01    0.397E-01
DAV:   4    -0.298557641616E+03    0.41202E-03   -0.20363E-03  3448   0.894E-02    0.261E-01
DAV:   5    -0.298557491351E+03    0.15026E-03   -0.15824E-03  3264   0.814E-02    0.984E-02
DAV:   6    -0.298557624205E+03   -0.13285E-03   -0.14176E-03  3296   0.838E-02    0.537E-02
DAV:   7    -0.298557563840E+03    0.60366E-04   -0.79143E-04  2584   0.527E-02
  93 F= -.29855756E+03 E0= -.29854831E+03  d E =-.637451E-01
 trial-energy change:   -0.063745  1 .order   -0.063952   -0.083666   -0.044239
 step:   2.4732(harm=  2.4732)  dis= 0.05806  next Energy=  -298.582589 (dE=-0.888E-01)
 bond charge predicted
       N       E                     dE             d eps       ncg     rms          rms(c)
DAV:   1    -0.298528609445E+03    0.29015E-01   -0.90850E+00  2816   0.471E+00    0.180E+00
DAV:   2    -0.298582007982E+03   -0.53399E-01   -0.63449E-01  3512   0.134E+00    0.606E-01
DAV:   3    -0.298580522727E+03    0.14853E-02   -0.21159E-02  3656   0.292E-01    0.476E-01
DAV:   4    -0.298579968829E+03    0.55390E-03   -0.27890E-03  3432   0.103E-01    0.310E-01
DAV:   5    -0.298579909282E+03    0.59547E-04   -0.35811E-03  3432   0.110E-01    0.129E-01
DAV:   6    -0.298580015258E+03   -0.10598E-03   -0.50839E-03  3608   0.117E-01    0.852E-02
DAV:   7    -0.298579813336E+03    0.20192E-03   -0.15858E-03  2816   0.595E-02    0.369E-02
DAV:   8    -0.298579829463E+03   -0.16127E-04   -0.93191E-05  1848   0.247E-02
  94 F= -.29857983E+03 E0= -.29857058E+03  d E =-.860107E-01
 curvature:  -4.40 expect dE=-0.535E+00 dE for cont linesearch -0.194E-03
 trial: gam= 1.03976 g(F)=  0.122E+00 g(S)=  0.000E+00 ort =-0.336E-02 (trialstep = 0.933E+00)
 search vector abs. value=  0.391E+00
 bond charge predicted
       N       E                     dE             d eps       ncg     rms          rms(c)
DAV:   1    -0.298614118548E+03   -0.34305E-01   -0.71455E+00  2816   0.417E+00    0.154E+00
DAV:   2    -0.298658089152E+03   -0.43971E-01   -0.50441E-01  3536   0.118E+00    0.544E-01
DAV:   3    -0.298656028273E+03    0.20609E-02   -0.16697E-02  3728   0.253E-01    0.440E-01
DAV:   4    -0.298655240164E+03    0.78811E-03   -0.28879E-03  3376   0.930E-02    0.245E-01
DAV:   5    -0.298655145695E+03    0.94468E-04   -0.14694E-03  3392   0.601E-02    0.888E-02
DAV:   6    -0.298655277812E+03   -0.13212E-03   -0.16398E-03  2848   0.495E-02    0.709E-02
DAV:   7    -0.298655188441E+03    0.89371E-04   -0.85863E-04  2280   0.365E-02
  95 F= -.29865519E+03 E0= -.29864591E+03  d E =-.753590E-01
 trial-energy change:   -0.075359  1 .order   -0.075360   -0.110193   -0.040526
 step:   1.4756(harm=  1.4756)  dis= 0.06136  next Energy=  -298.666977 (dE=-0.871E-01)
 bond charge predicted
       N       E                     dE             d eps       ncg     rms          rms(c)
DAV:   1    -0.298653055457E+03    0.22224E-02   -0.24447E+00  2816   0.241E+00    0.852E-01
DAV:   2    -0.298667852484E+03   -0.14797E-01   -0.17020E-01  3552   0.686E-01    0.298E-01
DAV:   3    -0.298667151436E+03    0.70105E-03   -0.55727E-03  3720   0.149E-01    0.232E-01
DAV:   4    -0.298666929392E+03    0.22204E-03   -0.10664E-03  3312   0.633E-02    0.130E-01
DAV:   5    -0.298666923350E+03    0.60423E-05   -0.75885E-04  3224   0.603E-02
  96 F= -.29866692E+03 E0= -.29865766E+03  d E =-.870939E-01
 curvature:  -2.44 expect dE=-0.833E-01 dE for cont linesearch -0.101E-05
 trial: gam= 0.27703 g(F)=  0.341E-01 g(S)=  0.000E+00 ort = 0.402E-03 (trialstep = 0.104E+01)
 search vector abs. value=  0.644E-01
 bond charge predicted
       N       E                     dE             d eps       ncg     rms          rms(c)
DAV:   1    -0.298684805662E+03   -0.17876E-01   -0.14286E+00  2816   0.200E+00    0.662E-01
DAV:   2    -0.298694411580E+03   -0.96059E-02   -0.11099E-01  3592   0.587E-01    0.230E-01
DAV:   3    -0.298694192898E+03    0.21868E-03   -0.51361E-03  3656   0.140E-01    0.183E-01
DAV:   4    -0.298694129718E+03    0.63180E-04   -0.24551E-03  3368   0.780E-02    0.141E-01
DAV:   5    -0.298694007970E+03    0.12175E-03   -0.16378E-03  3216   0.617E-02    0.742E-02
DAV:   6    -0.298694017711E+03   -0.97407E-05   -0.63103E-04  2640   0.412E-02
  97 F= -.29869402E+03 E0= -.29868482E+03  d E =-.270944E-01
 trial-energy change:   -0.027094  1 .order   -0.027204   -0.035659   -0.018748
 step:   2.1961(harm=  2.1961)  dis= 0.02780  next Energy=  -298.704520 (dE=-0.376E-01)
 bond charge predicted
       N       E                     dE             d eps       ncg     rms          rms(c)
DAV:   1    -0.298692574526E+03    0.14334E-02   -0.17675E+00  2816   0.222E+00    0.744E-01
DAV:   2    -0.298704544347E+03   -0.11970E-01   -0.13701E-01  3544   0.652E-01    0.245E-01
DAV:   3    -0.298704246317E+03    0.29803E-03   -0.44220E-03  3688   0.140E-01    0.200E-01
DAV:   4    -0.298704144591E+03    0.10173E-03   -0.81798E-04  3208   0.558E-02    0.133E-01
DAV:   5    -0.298704194604E+03   -0.50013E-04   -0.17040E-03  3256   0.682E-02    0.746E-02
DAV:   6    -0.298704122001E+03    0.72603E-04   -0.15298E-03  2816   0.591E-02    0.319E-02
DAV:   7    -0.298704105303E+03    0.16698E-04   -0.22446E-04  1632   0.235E-02
  98 F= -.29870411E+03 E0= -.29869497E+03  d E =-.371820E-01
 curvature:  -2.06 expect dE=-0.487E-01 dE for cont linesearch -0.137E-05
 trial: gam= 0.69959 g(F)=  0.236E-01 g(S)=  0.000E+00 ort =-0.206E-03 (trialstep = 0.127E+01)
 search vector abs. value=  0.548E-01
 bond charge predicted
       N       E                     dE             d eps       ncg     rms          rms(c)
DAV:   1    -0.298716502700E+03   -0.12381E-01   -0.17403E+00  2816   0.221E+00    0.689E-01
DAV:   2    -0.298727915119E+03   -0.11412E-01   -0.13088E-01  3512   0.637E-01    0.253E-01
DAV:   3    -0.298727700729E+03    0.21439E-03   -0.48248E-03  3608   0.146E-01    0.216E-01
DAV:   4    -0.298727614815E+03    0.85914E-04   -0.80344E-04  3136   0.585E-02
  99 F= -.29872761E+03 E0= -.29871846E+03  d E =-.235095E-01
 trial-energy change:   -0.023510  1 .order   -0.023645   -0.029870   -0.017420
 step:   3.0528(harm=  3.0528)  dis= 0.03422  next Energy=  -298.739938 (dE=-0.358E-01)
 bond charge predicted
       N       E                     dE             d eps       ncg     rms          rms(c)
DAV:   1    -0.298718321505E+03    0.93792E-02   -0.33637E+00  2816   0.308E+00    0.929E-01
DAV:   2    -0.298740069215E+03   -0.21748E-01   -0.25116E-01  3480   0.890E-01    0.411E-01
DAV:   3    -0.298739777294E+03    0.29192E-03   -0.19408E-02  3488   0.270E-01    0.344E-01
DAV:   4    -0.298739334781E+03    0.44251E-03   -0.67412E-03  3472   0.140E-01    0.265E-01
DAV:   5    -0.298739173694E+03    0.16109E-03   -0.43774E-03  3464   0.990E-02    0.165E-01
DAV:   6    -0.298739067059E+03    0.10663E-03   -0.23783E-03  3440   0.708E-02    0.428E-02
DAV:   7    -0.298739057130E+03    0.99293E-05   -0.21854E-04  2296   0.424E-02
 100 F= -.29873906E+03 E0= -.29872993E+03  d E =-.349518E-01
 curvature:  -3.56 expect dE=-0.722E-01 dE for cont linesearch -0.180E-04
 trial: gam= 0.83649 g(F)=  0.202E-01 g(S)=  0.000E+00 ort =-0.526E-03 (trialstep = 0.155E+01)
 search vector abs. value=  0.577E-01
 bond charge predicted
       N       E                     dE             d eps       ncg     rms          rms(c)
DAV:   1    -0.298746664112E+03   -0.75971E-02   -0.24530E+00  2816   0.261E+00    0.827E-01
DAV:   2    -0.298762227111E+03   -0.15563E-01   -0.17666E-01  3552   0.736E-01    0.296E-01
DAV:   3    -0.298761798632E+03    0.42848E-03   -0.51583E-03  3736   0.152E-01    0.234E-01
DAV:   4    -0.298761654868E+03    0.14376E-03   -0.78197E-04  3400   0.544E-02    0.146E-01
DAV:   5    -0.298761645598E+03    0.92700E-05   -0.73540E-04  3152   0.577E-02
 101 F= -.29876165E+03 E0= -.29875252E+03  d E =-.225885E-01
 trial-energy change:   -0.022588  1 .order   -0.022801   -0.030634   -0.014968
 step:   3.0241(harm=  3.0241)  dis= 0.03647  next Energy=  -298.769008 (dE=-0.300E-01)
 bond charge predicted
       N       E                     dE             d eps       ncg     rms          rms(c)
DAV:   1    -0.298754233094E+03    0.74218E-02   -0.22262E+00  2816   0.249E+00    0.803E-01
DAV:   2    -0.298768355112E+03   -0.14122E-01   -0.16174E-01  3568   0.702E-01    0.289E-01
DAV:   3    -0.298768020069E+03    0.33504E-03   -0.66469E-03  3712   0.158E-01    0.223E-01
DAV:   4    -0.298768003474E+03    0.16595E-04   -0.35926E-03  3560   0.891E-02    0.168E-01
DAV:   5    -0.298767857317E+03    0.14616E-03   -0.32306E-03  3376   0.812E-02    0.944E-02
DAV:   6    -0.298767804540E+03    0.52777E-04   -0.10553E-03  3192   0.533E-02    0.325E-02
DAV:   7    -0.298767811102E+03   -0.65626E-05   -0.11565E-04  1704   0.237E-02
 102 F= -.29876781E+03 E0= -.29875867E+03  d E =-.287540E-01
 curvature:  -4.41 expect dE=-0.737E-01 dE for cont linesearch -0.600E-04
 trial: gam= 0.82112 g(F)=  0.167E-01 g(S)=  0.000E+00 ort =-0.887E-03 (trialstep = 0.184E+01)
 search vector abs. value=  0.542E-01
 bond charge predicted
       N       E                     dE             d eps       ncg     rms          rms(c)
DAV:   1    -0.298764175134E+03    0.36294E-02   -0.35142E+00  2816   0.308E+00    0.103E+00
DAV:   2    -0.298786480842E+03   -0.22306E-01   -0.25207E-01  3504   0.879E-01    0.347E-01
DAV:   3    -0.298785882901E+03    0.59794E-03   -0.78263E-03  3680   0.184E-01    0.278E-01
DAV:   4    -0.298785652781E+03    0.23012E-03   -0.10066E-03  3392   0.610E-02    0.191E-01
DAV:   5    -0.298785579548E+03    0.73233E-04   -0.99395E-04  3288   0.592E-02
 103 F= -.29878558E+03 E0= -.29877644E+03  d E =-.177684E-01
 trial-energy change:   -0.017768  1 .order   -0.017987   -0.029465   -0.006510
 step:   2.3645(harm=  2.3645)  dis= 0.03166  next Energy=  -298.786721 (dE=-0.189E-01)
 bond charge predicted
       N       E                     dE             d eps       ncg     rms          rms(c)
DAV:   1    -0.298784717985E+03    0.93480E-03   -0.27772E-01  2848   0.871E-01    0.284E-01
DAV:   2    -0.298786476479E+03   -0.17585E-02   -0.21357E-02  3552   0.254E-01    0.129E-01
DAV:   3    -0.298786489245E+03   -0.12766E-04   -0.37541E-03  3600   0.100E-01    0.941E-02
DAV:   4    -0.298786368039E+03    0.12121E-03   -0.17362E-03  2704   0.620E-02    0.683E-02
DAV:   5    -0.298786332149E+03    0.35889E-04   -0.31877E-04  1808   0.309E-02
 104 F= -.29878633E+03 E0= -.29877723E+03  d E =-.185210E-01
 curvature:  -4.01 expect dE=-0.460E-01 dE for cont linesearch -0.371E-05
 trial: gam= 0.63576 g(F)=  0.115E-01 g(S)=  0.000E+00 ort =-0.224E-03 (trialstep = 0.195E+01)
 search vector abs. value=  0.331E-01
 bond charge predicted
       N       E                     dE             d eps       ncg     rms          rms(c)
DAV:   1    -0.298780756969E+03    0.56111E-02   -0.23285E+00  2816   0.259E+00    0.843E-01
DAV:   2    -0.298796361921E+03   -0.15605E-01   -0.17563E-01  3512   0.738E-01    0.307E-01
DAV:   3    -0.298795890302E+03    0.47162E-03   -0.54459E-03  3784   0.152E-01    0.243E-01
DAV:   4    -0.298795688382E+03    0.20192E-03   -0.11402E-03  3400   0.587E-02    0.142E-01
DAV:   5    -0.298795729154E+03   -0.40772E-04   -0.10823E-03  3064   0.457E-02    0.630E-02
DAV:   6    -0.298795758438E+03   -0.29284E-04   -0.13945E-03  2584   0.482E-02    0.547E-02
DAV:   7    -0.298795687840E+03    0.70598E-04   -0.44087E-04  2024   0.308E-02
 105 F= -.29879569E+03 E0= -.29878664E+03  d E =-.935569E-02
 trial-energy change:   -0.009356  1 .order   -0.009362   -0.022099    0.003374
 step:   1.6887(harm=  1.6887)  dis= 0.01432  next Energy=  -298.795918 (dE=-0.959E-02)
 bond charge predicted
       N       E                     dE             d eps       ncg     rms          rms(c)
DAV:   1    -0.298795670535E+03    0.87903E-04   -0.40396E-02  2848   0.340E-01    0.102E-01
DAV:   2    -0.298795930183E+03   -0.25965E-03   -0.29374E-03  3504   0.967E-02    0.450E-02
DAV:   3    -0.298795921286E+03    0.88966E-05   -0.79314E-05  1872   0.200E-02
 106 F= -.29879592E+03 E0= -.29878687E+03  d E =-.958914E-02
 curvature:  -2.46 expect dE=-0.121E-01 dE for cont linesearch -0.489E-08
 trial: gam= 0.40769 g(F)=  0.490E-02 g(S)=  0.000E+00 ort =-0.811E-05 (trialstep = 0.189E+01)
 search vector abs. value=  0.104E-01
 bond charge predicted
       N       E                     dE             d eps       ncg     rms          rms(c)
DAV:   1    -0.298796920218E+03   -0.99003E-03   -0.67896E-01  2816   0.141E+00    0.459E-01
DAV:   2    -0.298801415284E+03   -0.44951E-02   -0.51990E-02  3504   0.405E-01    0.149E-01
DAV:   3    -0.298801302173E+03    0.11311E-03   -0.19179E-03  3648   0.889E-02    0.121E-01
DAV:   4    -0.298801283040E+03    0.19133E-04   -0.62478E-04  2472   0.400E-02
 107 F= -.29880128E+03 E0= -.29879231E+03  d E =-.536175E-02
 trial-energy change:   -0.005362  1 .order   -0.005398   -0.009273   -0.001524
 step:   2.2676(harm=  2.2676)  dis= 0.01684  next Energy=  -298.801469 (dE=-0.555E-02)
 bond charge predicted
       N       E                     dE             d eps       ncg     rms          rms(c)
DAV:   1    -0.298801244254E+03    0.57919E-04   -0.24925E-02  2912   0.273E-01    0.927E-02
DAV:   2    -0.298801433599E+03   -0.18935E-03   -0.28340E-03  3568   0.902E-02    0.706E-02
DAV:   3    -0.298801374943E+03    0.58656E-04   -0.11279E-03  2544   0.507E-02    0.427E-02
DAV:   4    -0.298801356004E+03    0.18939E-04   -0.22546E-04  1696   0.246E-02
 108 F= -.29880136E+03 E0= -.29879236E+03  d E =-.543472E-02
 curvature:  -2.41 expect dE=-0.573E-02 dE for cont linesearch -0.291E-05
 trial: gam= 0.50632 g(F)=  0.238E-02 g(S)=  0.000E+00 ort =-0.112E-03 (trialstep = 0.197E+01)
 search vector abs. value=  0.493E-02
 bond charge predicted
       N       E                     dE             d eps       ncg     rms          rms(c)
DAV:   1    -0.298801630698E+03   -0.25575E-03   -0.36159E-01  2816   0.104E+00    0.340E-01
DAV:   2    -0.298804050923E+03   -0.24202E-02   -0.28038E-02  3528   0.300E-01    0.118E-01
DAV:   3    -0.298803997880E+03    0.53044E-04   -0.10619E-03  3592   0.691E-02    0.982E-02
DAV:   4    -0.298803977284E+03    0.20596E-04   -0.13867E-04  1936   0.271E-02
 109 F= -.29880398E+03 E0= -.29879499E+03  d E =-.262128E-02
 trial-energy change:   -0.002621  1 .order   -0.002677   -0.004572   -0.000783
 step:   2.3767(harm=  2.3767)  dis= 0.01178  next Energy=  -298.804114 (dE=-0.276E-02)
 bond charge predicted
       N       E                     dE             d eps       ncg     rms          rms(c)
DAV:   1    -0.298803949756E+03    0.48124E-04   -0.14303E-02  2912   0.209E-01    0.714E-02
DAV:   2    -0.298804058316E+03   -0.10856E-03   -0.15987E-03  3520   0.749E-02    0.535E-02
DAV:   3    -0.298804025215E+03    0.33101E-04   -0.68723E-04  2320   0.460E-02
 110 F= -.29880403E+03 E0= -.29879506E+03  d E =-.266921E-02
 curvature:  -2.52 expect dE=-0.278E-02 dE for cont linesearch -0.109E-04
 trial: gam= 0.48658 g(F)=  0.110E-02 g(S)=  0.000E+00 ort =-0.146E-03 (trialstep = 0.205E+01)
 search vector abs. value=  0.213E-02
 bond charge predicted
       N       E                     dE             d eps       ncg     rms          rms(c)
DAV:   1    -0.298804067509E+03   -0.91932E-05   -0.17771E-01  2848   0.742E-01    0.240E-01
DAV:   2    -0.298805298409E+03   -0.12309E-02   -0.13821E-02  3536   0.214E-01    0.937E-02
DAV:   3    -0.298805265545E+03    0.32864E-04   -0.49449E-04  2992   0.462E-02
 111 F= -.29880527E+03 E0= -.29879627E+03  d E =-.124033E-02
 trial-energy change:   -0.001240  1 .order   -0.001182   -0.002117   -0.000247
 step:   2.3216(harm=  2.3216)  dis= 0.00849  next Energy=  -298.805224 (dE=-0.120E-02)
 bond charge predicted
       N       E                     dE             d eps       ncg     rms          rms(c)
DAV:   1    -0.298805270531E+03    0.27878E-04   -0.30437E-03  2968   0.972E-02    0.478E-02
DAV:   2    -0.298805289964E+03   -0.19433E-04   -0.44830E-04  2192   0.344E-02
 112 F= -.29880529E+03 E0= -.29879628E+03  d E =-.126475E-02
 curvature:  -2.39 expect dE=-0.123E-02 dE for cont linesearch -0.869E-06
 trial: gam= 0.42747 g(F)=  0.512E-03 g(S)=  0.000E+00 ort =-0.278E-04 (trialstep = 0.211E+01)
 search vector abs. value=  0.877E-03
 bond charge predicted
       N       E                     dE             d eps       ncg     rms          rms(c)
DAV:   1    -0.298805408212E+03   -0.13768E-03   -0.76257E-02  2832   0.486E-01    0.160E-01
DAV:   2    -0.298805943634E+03   -0.53542E-03   -0.60249E-03  3560   0.144E-01    0.688E-02
DAV:   3    -0.298805928565E+03    0.15069E-04   -0.41280E-04  2312   0.388E-02
 113 F= -.29880593E+03 E0= -.29879697E+03  d E =-.638601E-03
 trial-energy change:   -0.000639  1 .order   -0.000604   -0.001054   -0.000154
 step:   2.4642(harm=  2.4642)  dis= 0.00583  next Energy=  -298.805907 (dE=-0.617E-03)
 reached required accuracy - stopping structural energy minimisation
 augmentation electrons   -25.41363770885071     
 soft         electrons    305.4353935415191     
 total        electrons    280.0217558326684     
