<?xml version="1.0" encoding="ISO-8859-1"?>
<modeling>
 <generator>
  <i name="program" type="string">vasp </i>
  <i name="version" type="string">6.1.2  </i>
  <i name="subversion" type="string">22Jul20 (build Jun  1 2021 15:15:33) complex                          parallel </i>
  <i name="platform" type="string">LinuxPGI </i>
  <i name="date" type="string">2024 07 01 </i>
  <i name="time" type="string">01:39:40 </i>
 </generator>
 <incar>
  <i type="int" name="IBRION">     2</i>
  <i name="EDIFFG">     -0.03000000</i>
  <i type="int" name="NSW">  2000</i>
  <i type="int" name="ISIF">     0</i>
  <i type="int" name="ISYM">     0</i>
  <i name="SYMPREC">      0.00000000</i>
  <i name="ENCUT">    350.00000000</i>
  <i type="string" name="LREAL"> Auto</i>
  <i type="int" name="ISMEAR">     0</i>
  <i name="SIGMA">      0.05000000</i>
  <i type="logical" name="LWAVE"> F  </i>
  <i type="int" name="NCORE">     4</i>
  <i type="logical" name="LAECHG"> T  </i>
  <i type="string" name="GGA"> RP</i>
 </incar>
 <structure name="primitive_cell" >
  <crystal>
   <varray name="basis" >
    <v>       8.15364985       0.00000000      -0.00000000 </v>
    <v>      -4.07682492      11.76877984       3.32871361 </v>
    <v>       0.00000000       0.00000000      39.94456335 </v>
   </varray>
   <i name="volume">   3833.02078075 </i>
   <varray name="rec_basis" >
    <v>       0.12264446       0.04248529      -0.00000000 </v>
    <v>      -0.00000000       0.08497058       0.00000000 </v>
    <v>       0.00000000      -0.00708088       0.02503470 </v>
   </varray>
  </crystal>
  <varray name="positions" >
   <v>       0.36720143       0.73440286       0.51693405 </v>
   <v>       0.16720143       0.33440286       0.46693405 </v>
   <v>       0.56720143       0.13440286       0.56693405 </v>
   <v>       0.96720143       0.93440286       0.41693405 </v>
   <v>       0.76720143       0.53440286       0.61693405 </v>
   <v>       0.96720143       0.43440286       0.54193405 </v>
   <v>       0.76720143       0.03440286       0.49193405 </v>
   <v>       0.16720143       0.83440286       0.59193405 </v>
   <v>       0.56720143       0.63440286       0.44193405 </v>
   <v>       0.36720143       0.23440286       0.39193405 </v>
   <v>       0.46720143       0.43440286       0.54193405 </v>
   <v>       0.26720143       0.03440286       0.49193405 </v>
   <v>       0.66720143       0.83440286       0.59193405 </v>
   <v>       0.06720143       0.63440286       0.44193405 </v>
   <v>       0.86720143       0.23440286       0.39193405 </v>
   <v>       0.26720143       0.53440286       0.61693405 </v>
   <v>       0.06720143       0.13440286       0.56693405 </v>
   <v>       0.46720143       0.93440286       0.41693405 </v>
   <v>       0.86720143       0.73440286       0.51693405 </v>
   <v>       0.66720143       0.33440286       0.46693405 </v>
   <v>       0.68012746       0.57793984       0.49737617 </v>
   <v>       0.48012746       0.17793984       0.44737617 </v>
   <v>       0.88012746       0.97793984       0.54737617 </v>
   <v>       0.28012746       0.77793984       0.39737617 </v>
   <v>       0.08012746       0.37793984       0.59737617 </v>
   <v>       0.12366445       0.74732889       0.48326042 </v>
   <v>       0.92366445       0.34732889       0.43326042 </v>
   <v>       0.32366445       0.14732889       0.53326042 </v>
   <v>       0.72366445       0.94732889       0.38326042 </v>
   <v>       0.52366445       0.54732889       0.58326042 </v>
   <v>       0.99781238       0.27793984       0.52237617 </v>
   <v>       0.79781238       0.87793984       0.47237617 </v>
   <v>       0.19781238       0.67793984       0.57237617 </v>
   <v>       0.59781238       0.47793984       0.42237617 </v>
   <v>       0.39781238       0.07793984       0.37237617 </v>
   <v>       0.26720143       0.53440286       0.46472343 </v>
   <v>       0.06720143       0.13440286       0.41472343 </v>
   <v>       0.46720143       0.93440286       0.51472343 </v>
   <v>       0.86720143       0.73440286       0.61472343 </v>
   <v>       0.66720143       0.33440286       0.56472343 </v>
   <v>       0.85427540       0.49086587       0.48649193 </v>
   <v>       0.65427540       0.09086587       0.43649193 </v>
   <v>       0.05427540       0.89086587       0.53649193 </v>
   <v>       0.45427540       0.69086587       0.38649193 </v>
   <v>       0.25427540       0.29086587       0.58649193 </v>
   <v>       0.41073841       0.32147683       0.50060768 </v>
   <v>       0.21073841       0.92147683       0.45060768 </v>
   <v>       0.61073841       0.72147683       0.55060768 </v>
   <v>       0.01073841       0.52147683       0.40060768 </v>
   <v>       0.81073841       0.12147683       0.60060768 </v>
   <v>       0.53659048       0.79086587       0.46149193 </v>
   <v>       0.33659048       0.39086587       0.41149193 </v>
   <v>       0.73659048       0.19086587       0.51149193 </v>
   <v>       0.13659048       0.99086587       0.61149193 </v>
   <v>       0.93659048       0.59086587       0.56149193 </v>
   <v>       0.26720143       0.53440286       0.51914466 </v>
   <v>       0.06720143       0.13440286       0.46914466 </v>
   <v>       0.46720143       0.93440286       0.56914466 </v>
   <v>       0.86720143       0.73440286       0.41914466 </v>
   <v>       0.66720143       0.33440286       0.61914466 </v>
  </varray>
 </structure>
 <varray name="primitive_index" >
  <v type="int" >        1 </v>
  <v type="int" >        2 </v>
  <v type="int" >        3 </v>
  <v type="int" >        4 </v>
  <v type="int" >        5 </v>
  <v type="int" >        6 </v>
  <v type="int" >        7 </v>
  <v type="int" >        8 </v>
  <v type="int" >        9 </v>
  <v type="int" >       10 </v>
  <v type="int" >       11 </v>
  <v type="int" >       12 </v>
  <v type="int" >       13 </v>
  <v type="int" >       14 </v>
  <v type="int" >       15 </v>
  <v type="int" >       16 </v>
  <v type="int" >       17 </v>
  <v type="int" >       18 </v>
  <v type="int" >       19 </v>
  <v type="int" >       20 </v>
  <v type="int" >       21 </v>
  <v type="int" >       22 </v>
  <v type="int" >       23 </v>
  <v type="int" >       24 </v>
  <v type="int" >       25 </v>
  <v type="int" >       26 </v>
  <v type="int" >       27 </v>
  <v type="int" >       28 </v>
  <v type="int" >       29 </v>
  <v type="int" >       30 </v>
  <v type="int" >       31 </v>
  <v type="int" >       32 </v>
  <v type="int" >       33 </v>
  <v type="int" >       34 </v>
  <v type="int" >       35 </v>
  <v type="int" >       36 </v>
  <v type="int" >       37 </v>
  <v type="int" >       38 </v>
  <v type="int" >       39 </v>
  <v type="int" >       40 </v>
  <v type="int" >       41 </v>
  <v type="int" >       42 </v>
  <v type="int" >       43 </v>
  <v type="int" >       44 </v>
  <v type="int" >       45 </v>
  <v type="int" >       46 </v>
  <v type="int" >       47 </v>
  <v type="int" >       48 </v>
  <v type="int" >       49 </v>
  <v type="int" >       50 </v>
  <v type="int" >       51 </v>
  <v type="int" >       52 </v>
  <v type="int" >       53 </v>
  <v type="int" >       54 </v>
  <v type="int" >       55 </v>
  <v type="int" >       56 </v>
  <v type="int" >       57 </v>
  <v type="int" >       58 </v>
  <v type="int" >       59 </v>
  <v type="int" >       60 </v>
 </varray>
 <kpoints>
  <generation param="Monkhorst-Pack">
   <v type="int" name="divisions">       5        3        1 </v>
   <v name="usershift">      0.00000000       0.00000000       0.00000000 </v>
   <v name="genvec1">      0.20000000       0.00000000       0.00000000 </v>
   <v name="genvec2">      0.00000000       0.33333333       0.00000000 </v>
   <v name="genvec3">      0.00000000      -0.00000000       1.00000000 </v>
   <v name="shift">      0.00000000       0.00000000       0.00000000 </v>
  </generation>
  <varray name="kpointlist" >
   <v>       0.00000000       0.00000000       0.00000000 </v>
   <v>       0.20000000       0.00000000       0.00000000 </v>
   <v>       0.40000000       0.00000000       0.00000000 </v>
   <v>       0.00000000       0.33333333       0.00000000 </v>
   <v>       0.20000000       0.33333333       0.00000000 </v>
   <v>       0.40000000       0.33333333       0.00000000 </v>
   <v>      -0.40000000       0.33333333       0.00000000 </v>
   <v>      -0.20000000       0.33333333       0.00000000 </v>
  </varray>
  <varray name="weights" >
   <v>       0.06666667 </v>
   <v>       0.13333333 </v>
   <v>       0.13333333 </v>
   <v>       0.13333333 </v>
   <v>       0.13333333 </v>
   <v>       0.13333333 </v>
   <v>       0.13333333 </v>
   <v>       0.13333333 </v>
  </varray>
 </kpoints>
 <parameters>
  <separator name="general" >
   <i type="string" name="SYSTEM">unknown system</i>
   <i type="logical" name="LCOMPAT"> F  </i>
  </separator>
  <separator name="electronic" >
   <i type="string" name="PREC">normal</i>
   <i name="ENMAX">    350.00000000</i>
   <i name="ENAUG">    342.92400000</i>
   <i name="EDIFF">      0.00010000</i>
   <i type="int" name="IALGO">    38</i>
   <i type="int" name="IWAVPR">    11</i>
   <i type="int" name="NBANDS">   176</i>
   <i type="int" name="NBANDSLOW">    -1</i>
   <i type="int" name="NBANDSHIGH">    -1</i>
   <i name="NELECT">    280.00000000</i>
   <i type="int" name="TURBO">     0</i>
   <i type="int" name="IRESTART">     0</i>
   <i type="int" name="NREBOOT">     0</i>
   <i type="int" name="NMIN">     0</i>
   <i name="EREF">      0.00000000</i>
   <separator name="electronic smearing" >
    <i type="int" name="ISMEAR">     0</i>
    <i name="SIGMA">      0.05000000</i>
    <i name="KSPACING">      0.50000000</i>
    <i type="logical" name="KGAMMA"> T  </i>
    <i type="logical" name="KBLOWUP"> T  </i>
   </separator>
   <separator name="electronic projectors" >
    <i type="logical" name="LREAL"> T  </i>
    <v name="ROPT">     -0.00050000     -0.00050000</v>
    <i type="int" name="LMAXPAW">  -100</i>
    <i type="int" name="LMAXMIX">     2</i>
    <i type="logical" name="NLSPLINE"> F  </i>
   </separator>
   <separator name="electronic startup" >
    <i type="int" name="ISTART">     0</i>
    <i type="int" name="ICHARG">     2</i>
    <i type="int" name="INIWAV">     1</i>
   </separator>
   <separator name="electronic spin" >
    <i type="int" name="ISPIN">     1</i>
    <i type="logical" name="LNONCOLLINEAR"> F  </i>
    <v name="MAGMOM">      1.00000000      1.00000000      1.00000000      1.00000000      1.00000000      1.00000000      1.00000000      1.00000000      1.00000000      1.00000000      1.00000000      1.00000000      1.00000000      1.00000000      1.00000000      1.00000000      1.00000000      1.00000000      1.00000000      1.00000000
      1.00000000      1.00000000      1.00000000      1.00000000      1.00000000      1.00000000      1.00000000      1.00000000      1.00000000      1.00000000      1.00000000      1.00000000      1.00000000      1.00000000      1.00000000      1.00000000      1.00000000      1.00000000      1.00000000      1.00000000
      1.00000000      1.00000000      1.00000000      1.00000000      1.00000000      1.00000000      1.00000000      1.00000000      1.00000000      1.00000000      1.00000000      1.00000000      1.00000000      1.00000000      1.00000000      1.00000000      1.00000000      1.00000000      1.00000000      1.00000000
</v>
    <i name="NUPDOWN">     -1.00000000</i>
    <i type="logical" name="LSORBIT"> F  </i>
    <v name="SAXIS">      0.00000000      0.00000000      1.00000000</v>
    <i type="logical" name="LSPIRAL"> F  </i>
    <v name="QSPIRAL">      0.00000000      0.00000000      0.00000000</v>
    <i type="logical" name="LZEROZ"> F  </i>
   </separator>
   <separator name="electronic exchange-correlation" >
    <i type="logical" name="LASPH"> F  </i>
    <i type="logical" name="LMETAGGA"> F  </i>
   </separator>
   <separator name="electronic convergence" >
    <i type="int" name="NELM">    60</i>
    <i type="int" name="NELMDL">    -5</i>
    <i type="int" name="NELMIN">     2</i>
    <i name="ENINI">    350.00000000</i>
    <separator name="electronic convergence detail" >
     <i type="logical" name="LDIAG"> T  </i>
     <i type="logical" name="LSUBROT"> F  </i>
     <i name="WEIMIN">      0.00100000</i>
     <i name="EBREAK">      0.00000014</i>
     <i name="DEPER">      0.30000000</i>
     <i type="int" name="NRMM">     4</i>
     <i name="TIME">      0.40000000</i>
    </separator>
   </separator>
   <separator name="electronic mixer" >
    <i name="AMIX">      0.40000000</i>
    <i name="BMIX">      1.00000000</i>
    <i name="AMIN">      0.10000000</i>
    <i name="AMIX_MAG">      1.60000000</i>
    <i name="BMIX_MAG">      1.00000000</i>
    <separator name="electronic mixer details" >
     <i type="int" name="IMIX">     4</i>
     <i type="logical" name="MIXFIRST"> F  </i>
     <i type="int" name="MAXMIX">   -45</i>
     <i name="WC">    100.00000000</i>
     <i type="int" name="INIMIX">     1</i>
     <i type="int" name="MIXPRE">     1</i>
     <i type="int" name="MREMOVE">     5</i>
    </separator>
   </separator>
   <separator name="electronic dipolcorrection" >
    <i type="logical" name="LDIPOL"> F  </i>
    <i type="logical" name="LMONO"> F  </i>
    <i type="int" name="IDIPOL">     0</i>
    <i name="EPSILON">      1.00000000</i>
    <v name="DIPOL">   -100.00000000   -100.00000000   -100.00000000</v>
    <i name="EFIELD">      0.00000000</i>
   </separator>
  </separator>
  <separator name="grids" >
   <i type="int" name="NGX">    40</i>
   <i type="int" name="NGY">    60</i>
   <i type="int" name="NGZ">   192</i>
   <i type="int" name="NGXF">    80</i>
   <i type="int" name="NGYF">   120</i>
   <i type="int" name="NGZF">   384</i>
   <i type="logical" name="ADDGRID"> F  </i>
  </separator>
  <separator name="ionic" >
   <i type="int" name="NSW">  2000</i>
   <i type="int" name="IBRION">     2</i>
   <i type="int" name="MDALGO">     0</i>
   <i type="int" name="ISIF">     0</i>
   <i name="PSTRESS">      0.00000000</i>
   <i name="EDIFFG">     -0.03000000</i>
   <i type="int" name="NFREE">     1</i>
   <i name="POTIM">      0.50000000</i>
   <i name="SMASS">     -3.00000000</i>
   <i name="SCALEE">      1.00000000</i>
  </separator>
  <separator name="ionic md" >
   <i name="TEBEG">      0.00010000</i>
   <i name="TEEND">      0.00010000</i>
   <i type="int" name="NBLOCK">     1</i>
   <i type="int" name="KBLOCK">  2000</i>
   <i type="int" name="NPACO">   256</i>
   <i name="APACO">     16.00000000</i>
  </separator>
  <separator name="symmetry" >
   <i type="int" name="ISYM">     0</i>
   <i name="SYMPREC">      0.00000000</i>
  </separator>
  <separator name="dos" >
   <i type="int" name="LORBIT">     0</i>
   <v name="RWIGS">     -1.00000000     -1.00000000</v>
   <i type="int" name="NEDOS">   301</i>
   <i name="EMIN">     10.00000000</i>
   <i name="EMAX">    -10.00000000</i>
   <i name="EFERMI">      0.00000000</i>
  </separator>
  <separator name="writing" >
   <i type="int" name="NWRITE">     2</i>
   <i type="logical" name="LWAVE"> F  </i>
   <i type="logical" name="LDOWNSAMPLE"> F  </i>
   <i type="logical" name="LCHARG"> T  </i>
   <i type="logical" name="LPARD"> F  </i>
   <i type="logical" name="LVTOT"> F  </i>
   <i type="logical" name="LVHAR"> F  </i>
   <i type="logical" name="LELF"> F  </i>
   <i type="logical" name="LOPTICS"> F  </i>
   <v name="STM">      0.00000000      0.00000000      0.00000000      0.00000000      0.00000000      0.00000000      0.00000000</v>
  </separator>
  <separator name="performance" >
   <i type="int" name="NPAR">     8</i>
   <i type="int" name="NSIM">     4</i>
   <i type="int" name="NBLK">    -1</i>
   <i type="logical" name="LPLANE"> T  </i>
   <i type="logical" name="LSCALAPACK"> T  </i>
   <i type="logical" name="LSCAAWARE"> F  </i>
   <i type="logical" name="LSCALU"> F  </i>
   <i type="logical" name="LASYNC"> F  </i>
   <i type="logical" name="LORBITALREAL"> F  </i>
  </separator>
  <separator name="miscellaneous" >
   <i type="int" name="IDIOT">     3</i>
   <i type="int" name="PHON_NSTRUCT">    -1</i>
   <i type="logical" name="LMUSIC"> F  </i>
   <v name="POMASS">     28.08500000     30.97400000</v>
   <v name="DARWINR">      0.00000000      0.00000000</v>
   <v name="DARWINV">      1.00000000      1.00000000</v>
   <i type="logical" name="LCORR"> T  </i>
  </separator>
  <i type="logical" name="GGA_COMPAT"> T  </i>
  <i type="logical" name="LBERRY"> F  </i>
  <i type="int" name="ICORELEVEL">     0</i>
  <i type="logical" name="LDAU"> F  </i>
  <i type="int" name="I_CONSTRAINED_M">     0</i>
  <separator name="electronic exchange-correlation" >
   <i type="string" name="GGA">RP</i>
   <i type="int" name="VOSKOWN">     0</i>
   <i type="logical" name="LHFCALC"> F  </i>
   <i type="string" name="PRECFOCK"></i>
   <i type="logical" name="LSYMGRAD"> F  </i>
   <i type="logical" name="LHFONE"> F  </i>
   <i type="logical" name="LRHFCALC"> F  </i>
   <i type="logical" name="LTHOMAS"> F  </i>
   <i type="logical" name="LMODELHF"> F  </i>
   <i type="logical" name="LFOCKACE"> F  </i>
   <i name="ENCUT4O">     -1.00000000</i>
   <i type="int" name="EXXOEP">     0</i>
   <i type="int" name="FOURORBIT">     0</i>
   <i name="AEXX">      0.00000000</i>
   <i name="HFALPHA">      0.00000000</i>
   <i name="MCALPHA">      0.00000000</i>
   <i name="ALDAX">      1.00000000</i>
   <i name="AGGAX">      1.00000000</i>
   <i name="ALDAC">      1.00000000</i>
   <i name="AGGAC">      1.00000000</i>
   <i type="int" name="NKREDX">     1</i>
   <i type="int" name="NKREDY">     1</i>
   <i type="int" name="NKREDZ">     1</i>
   <i type="logical" name="SHIFTRED"> F  </i>
   <i type="logical" name="ODDONLY"> F  </i>
   <i type="logical" name="EVENONLY"> F  </i>
   <i type="int" name="LMAXFOCK">     0</i>
   <i type="int" name="NMAXFOCKAE">     0</i>
   <i type="logical" name="LFOCKAEDFT"> F  </i>
   <i name="HFSCREEN">      0.00000000</i>
   <i name="HFSCREENC">      0.00000000</i>
   <i type="int" name="NBANDSGWLOW">     0</i>
  </separator>
  <separator name="vdW DFT" >
   <i type="logical" name="LUSE_VDW"> F  </i>
   <i name="Zab_VDW">     -0.84910000</i>
   <i name="PARAM1">      0.12340000</i>
   <i name="PARAM2">      1.00000000</i>
   <i name="PARAM3">      0.00000000</i>
  </separator>
  <separator name="model GW" >
   <i type="int" name="MODEL_GW">     0</i>
   <i name="MODEL_EPS0">     38.33020781</i>
   <i name="MODEL_ALPHA">      1.00000000</i>
  </separator>
  <separator name="linear response parameters" >
   <i type="logical" name="LEPSILON"> F  </i>
   <i type="logical" name="LRPA"> F  </i>
   <i type="logical" name="LNABLA"> F  </i>
   <i type="logical" name="LVEL"> F  </i>
   <i type="int" name="KINTER">     0</i>
   <i name="CSHIFT">      0.10000000</i>
   <i name="OMEGAMAX">     -1.00000000</i>
   <i name="DEG_THRESHOLD">      0.00200000</i>
   <i name="RTIME">     -0.10000000</i>
   <i name="WPLASMAI">      0.00000000</i>
   <v name="DFIELD">      0.00000000      0.00000000      0.00000000</v>
   <v name="WPLASMA">      0.00000000      0.00000000      0.00000000      0.00000000      0.00000000      0.00000000      0.00000000      0.00000000      0.00000000</v>
  </separator>
  <separator name="orbital magnetization" >
   <i type="logical" name="NUCIND"> F  </i>
   <v name="MAGPOS">      0.00000000      0.00000000      0.00000000</v>
   <i type="logical" name="LNICSALL"> T  </i>
   <i type="logical" name="ORBITALMAG"> F  </i>
   <i type="logical" name="LMAGBLOCH"> F  </i>
   <i type="logical" name="LCHIMAG"> F  </i>
   <i type="logical" name="LGAUGE"> T  </i>
   <i type="int" name="MAGATOM">     0</i>
   <v name="MAGDIPOL">      0.00000000      0.00000000      0.00000000</v>
   <v name="AVECCONST">      0.00000000      0.00000000      0.00000000</v>
  </separator>
  <separator name="response functions" >
   <i type="logical" name="LFINITE_TEMPERATURE"> F  </i>
   <i type="logical" name="LADDER"> F  </i>
   <i type="logical" name="LRPAFORCE"> F  </i>
   <i type="logical" name="LFXC"> F  </i>
   <i type="logical" name="LHARTREE"> T  </i>
   <i type="int" name="IBSE">     0</i>
   <v type="int" name="KPOINT">    -1     0     0     0</v>
   <i type="logical" name="LTCTC"> F  </i>
   <i type="logical" name="LTCTE"> F  </i>
   <i type="logical" name="LTETE"> F  </i>
   <i type="logical" name="LTRIPLET"> F  </i>
   <i type="logical" name="LFXCEPS"> F  </i>
   <i type="logical" name="LFXHEG"> F  </i>
   <i type="int" name="NATURALO">     2</i>
   <i type="logical" name="LHOLEGF"> F  </i>
   <i type="logical" name="L2ORDER"> F  </i>
   <i type="logical" name="LDMP1"> F  </i>
   <i type="logical" name="LMP2LT"> F  </i>
   <i type="logical" name="LSMP2LT"> F  </i>
   <i type="logical" name="LGWLF"> F  </i>
   <i name="ENCUTGW">     -2.00000000</i>
   <i name="ENCUTGWSOFT">     -2.00000000</i>
   <i name="ENCUTLF">     -1.00000000</i>
   <i type="logical" name="LESF_SPLINES"> F  </i>
   <i type="int" name="LMAXMP2">    -1</i>
   <i name="SCISSOR">      0.00000000</i>
   <i type="int" name="NOMEGA">     0</i>
   <i type="int" name="NOMEGAR">     0</i>
   <i type="int" name="NBANDSGW">    -1</i>
   <i type="int" name="NBANDSO">    -1</i>
   <i type="int" name="NBANDSV">    -1</i>
   <i type="int" name="NELM">     1</i>
   <i type="int" name="NELMHF">     1</i>
   <i type="int" name="DIM">     3</i>
   <i type="int" name="IESPILON">     4</i>
   <i type="int" name="ANTIRES">     0</i>
   <i name="OMEGAMAX">    -30.00000000</i>
   <i name="OMEGAMIN">    -30.00000000</i>
   <i name="OMEGATL">   -200.00000000</i>
   <i type="int" name="OMEGAGRID">     0</i>
   <i name="CSHIFT">     -0.10000000</i>
   <i type="logical" name="LSELFENERGY"> F  </i>
   <i type="logical" name="LSPECTRAL"> F  </i>
   <i type="logical" name="LSPECTRALGW"> F  </i>
   <i type="logical" name="LSINGLES"> F  </i>
   <i type="logical" name="LFERMIGW"> F  </i>
   <i type="logical" name="ODDONLYGW"> F  </i>
   <i type="logical" name="EVENONLYGW"> F  </i>
   <i type="int" name="NKREDLFX">     1</i>
   <i type="int" name="NKREDLFY">     1</i>
   <i type="int" name="NKREDLFZ">     1</i>
   <i type="int" name="MAXMEM">  2800</i>
   <i type="int" name="TELESCOPE">     0</i>
   <i type="int" name="NTAUPAR">    -1</i>
   <i type="int" name="NOMEGAPAR">    -1</i>
   <i name="LAMBDA">      1.00000000</i>
  </separator>
  <separator name="External order field" >
   <i name="OFIELD_KAPPA">      0.00000000</i>
   <v name="OFIELD_K">      0.00000000      0.00000000      0.00000000</v>
   <i name="OFIELD_Q6_NEAR">      0.00000000</i>
   <i name="OFIELD_Q6_FAR">      0.00000000</i>
   <i name="OFIELD_A">      0.00000000</i>
  </separator>
 </parameters>
 <atominfo>
  <atoms>      60 </atoms>
  <types>       2 </types>
  <array name="atoms" >
   <dimension dim="1">ion</dimension>
   <field type="string">element</field>
   <field type="int">atomtype</field>
   <set>
    <rc><c>Si</c><c>   1</c></rc>
    <rc><c>Si</c><c>   1</c></rc>
    <rc><c>Si</c><c>   1</c></rc>
    <rc><c>Si</c><c>   1</c></rc>
    <rc><c>Si</c><c>   1</c></rc>
    <rc><c>Si</c><c>   1</c></rc>
    <rc><c>Si</c><c>   1</c></rc>
    <rc><c>Si</c><c>   1</c></rc>
    <rc><c>Si</c><c>   1</c></rc>
    <rc><c>Si</c><c>   1</c></rc>
    <rc><c>Si</c><c>   1</c></rc>
    <rc><c>Si</c><c>   1</c></rc>
    <rc><c>Si</c><c>   1</c></rc>
    <rc><c>Si</c><c>   1</c></rc>
    <rc><c>Si</c><c>   1</c></rc>
    <rc><c>Si</c><c>   1</c></rc>
    <rc><c>Si</c><c>   1</c></rc>
    <rc><c>Si</c><c>   1</c></rc>
    <rc><c>Si</c><c>   1</c></rc>
    <rc><c>Si</c><c>   1</c></rc>
    <rc><c>P </c><c>   2</c></rc>
    <rc><c>P </c><c>   2</c></rc>
    <rc><c>P </c><c>   2</c></rc>
    <rc><c>P </c><c>   2</c></rc>
    <rc><c>P </c><c>   2</c></rc>
    <rc><c>P </c><c>   2</c></rc>
    <rc><c>P </c><c>   2</c></rc>
    <rc><c>P </c><c>   2</c></rc>
    <rc><c>P </c><c>   2</c></rc>
    <rc><c>P </c><c>   2</c></rc>
    <rc><c>P </c><c>   2</c></rc>
    <rc><c>P </c><c>   2</c></rc>
    <rc><c>P </c><c>   2</c></rc>
    <rc><c>P </c><c>   2</c></rc>
    <rc><c>P </c><c>   2</c></rc>
    <rc><c>P </c><c>   2</c></rc>
    <rc><c>P </c><c>   2</c></rc>
    <rc><c>P </c><c>   2</c></rc>
    <rc><c>P </c><c>   2</c></rc>
    <rc><c>P </c><c>   2</c></rc>
    <rc><c>P </c><c>   2</c></rc>
    <rc><c>P </c><c>   2</c></rc>
    <rc><c>P </c><c>   2</c></rc>
    <rc><c>P </c><c>   2</c></rc>
    <rc><c>P </c><c>   2</c></rc>
    <rc><c>P </c><c>   2</c></rc>
    <rc><c>P </c><c>   2</c></rc>
    <rc><c>P </c><c>   2</c></rc>
    <rc><c>P </c><c>   2</c></rc>
    <rc><c>P </c><c>   2</c></rc>
    <rc><c>P </c><c>   2</c></rc>
    <rc><c>P </c><c>   2</c></rc>
    <rc><c>P </c><c>   2</c></rc>
    <rc><c>P </c><c>   2</c></rc>
    <rc><c>P </c><c>   2</c></rc>
    <rc><c>P </c><c>   2</c></rc>
    <rc><c>P </c><c>   2</c></rc>
    <rc><c>P </c><c>   2</c></rc>
    <rc><c>P </c><c>   2</c></rc>
    <rc><c>P </c><c>   2</c></rc>
   </set>
  </array>
  <array name="atomtypes" >
   <dimension dim="1">type</dimension>
   <field type="int">atomspertype</field>
   <field type="string">element</field>
   <field>mass</field>
   <field>valence</field>
   <field type="string">pseudopotential</field>
   <set>
    <rc><c>  20</c><c>Si</c><c>     28.08500000</c><c>      4.00000000</c><c>  PAW_PBE Si 05Jan2001                  </c></rc>
    <rc><c>  40</c><c>P </c><c>     30.97400000</c><c>      5.00000000</c><c>  PAW_PBE P 06Sep2000                   </c></rc>
   </set>
  </array>
 </atominfo>
 <structure name="initialpos" >
  <crystal>
   <varray name="basis" >
    <v>       8.15364985       0.00000000      -0.00000000 </v>
    <v>      -4.07682492      11.76877984       3.32871361 </v>
    <v>       0.00000000       0.00000000      39.94456335 </v>
   </varray>
   <i name="volume">   3833.02078075 </i>
   <varray name="rec_basis" >
    <v>       0.12264446       0.04248529      -0.00000000 </v>
    <v>      -0.00000000       0.08497058       0.00000000 </v>
    <v>       0.00000000      -0.00708088       0.02503470 </v>
   </varray>
  </crystal>
  <varray name="positions" >
   <v>       0.36720143       0.73440286       0.51693405 </v>
   <v>       0.16720143       0.33440286       0.46693405 </v>
   <v>       0.56720143       0.13440286       0.56693405 </v>
   <v>       0.96720143       0.93440286       0.41693405 </v>
   <v>       0.76720143       0.53440286       0.61693405 </v>
   <v>       0.96720143       0.43440286       0.54193405 </v>
   <v>       0.76720143       0.03440286       0.49193405 </v>
   <v>       0.16720143       0.83440286       0.59193405 </v>
   <v>       0.56720143       0.63440286       0.44193405 </v>
   <v>       0.36720143       0.23440286       0.39193405 </v>
   <v>       0.46720143       0.43440286       0.54193405 </v>
   <v>       0.26720143       0.03440286       0.49193405 </v>
   <v>       0.66720143       0.83440286       0.59193405 </v>
   <v>       0.06720143       0.63440286       0.44193405 </v>
   <v>       0.86720143       0.23440286       0.39193405 </v>
   <v>       0.26720143       0.53440286       0.61693405 </v>
   <v>       0.06720143       0.13440286       0.56693405 </v>
   <v>       0.46720143       0.93440286       0.41693405 </v>
   <v>       0.86720143       0.73440286       0.51693405 </v>
   <v>       0.66720143       0.33440286       0.46693405 </v>
   <v>       0.68012746       0.57793984       0.49737617 </v>
   <v>       0.48012746       0.17793984       0.44737617 </v>
   <v>       0.88012746       0.97793984       0.54737617 </v>
   <v>       0.28012746       0.77793984       0.39737617 </v>
   <v>       0.08012746       0.37793984       0.59737617 </v>
   <v>       0.12366445       0.74732889       0.48326042 </v>
   <v>       0.92366445       0.34732889       0.43326042 </v>
   <v>       0.32366445       0.14732889       0.53326042 </v>
   <v>       0.72366445       0.94732889       0.38326042 </v>
   <v>       0.52366445       0.54732889       0.58326042 </v>
   <v>       0.99781238       0.27793984       0.52237617 </v>
   <v>       0.79781238       0.87793984       0.47237617 </v>
   <v>       0.19781238       0.67793984       0.57237617 </v>
   <v>       0.59781238       0.47793984       0.42237617 </v>
   <v>       0.39781238       0.07793984       0.37237617 </v>
   <v>       0.26720143       0.53440286       0.46472343 </v>
   <v>       0.06720143       0.13440286       0.41472343 </v>
   <v>       0.46720143       0.93440286       0.51472343 </v>
   <v>       0.86720143       0.73440286       0.61472343 </v>
   <v>       0.66720143       0.33440286       0.56472343 </v>
   <v>       0.85427540       0.49086587       0.48649193 </v>
   <v>       0.65427540       0.09086587       0.43649193 </v>
   <v>       0.05427540       0.89086587       0.53649193 </v>
   <v>       0.45427540       0.69086587       0.38649193 </v>
   <v>       0.25427540       0.29086587       0.58649193 </v>
   <v>       0.41073841       0.32147683       0.50060768 </v>
   <v>       0.21073841       0.92147683       0.45060768 </v>
   <v>       0.61073841       0.72147683       0.55060768 </v>
   <v>       0.01073841       0.52147683       0.40060768 </v>
   <v>       0.81073841       0.12147683       0.60060768 </v>
   <v>       0.53659048       0.79086587       0.46149193 </v>
   <v>       0.33659048       0.39086587       0.41149193 </v>
   <v>       0.73659048       0.19086587       0.51149193 </v>
   <v>       0.13659048       0.99086587       0.61149193 </v>
   <v>       0.93659048       0.59086587       0.56149193 </v>
   <v>       0.26720143       0.53440286       0.51914466 </v>
   <v>       0.06720143       0.13440286       0.46914466 </v>
   <v>       0.46720143       0.93440286       0.56914466 </v>
   <v>       0.86720143       0.73440286       0.41914466 </v>
   <v>       0.66720143       0.33440286       0.61914466 </v>
  </varray>
  <varray name="selective"  type="logical" >
   <v type="logical" >  F  F  F </v>
   <v type="logical" >  F  F  F </v>
   <v type="logical" >  T  T  T </v>
   <v type="logical" >  F  F  F </v>
   <v type="logical" >  T  T  T </v>
   <v type="logical" >  F  F  F </v>
   <v type="logical" >  F  F  F </v>
   <v type="logical" >  T  T  T </v>
   <v type="logical" >  F  F  F </v>
   <v type="logical" >  F  F  F </v>
   <v type="logical" >  F  F  F </v>
   <v type="logical" >  F  F  F </v>
   <v type="logical" >  T  T  T </v>
   <v type="logical" >  F  F  F </v>
   <v type="logical" >  F  F  F </v>
   <v type="logical" >  T  T  T </v>
   <v type="logical" >  T  T  T </v>
   <v type="logical" >  F  F  F </v>
   <v type="logical" >  F  F  F </v>
   <v type="logical" >  F  F  F </v>
   <v type="logical" >  F  F  F </v>
   <v type="logical" >  F  F  F </v>
   <v type="logical" >  F  F  F </v>
   <v type="logical" >  F  F  F </v>
   <v type="logical" >  T  T  T </v>
   <v type="logical" >  F  F  F </v>
   <v type="logical" >  F  F  F </v>
   <v type="logical" >  F  F  F </v>
   <v type="logical" >  F  F  F </v>
   <v type="logical" >  T  T  T </v>
   <v type="logical" >  F  F  F </v>
   <v type="logical" >  F  F  F </v>
   <v type="logical" >  T  T  T </v>
   <v type="logical" >  F  F  F </v>
   <v type="logical" >  F  F  F </v>
   <v type="logical" >  F  F  F </v>
   <v type="logical" >  F  F  F </v>
   <v type="logical" >  F  F  F </v>
   <v type="logical" >  T  T  T </v>
   <v type="logical" >  T  T  T </v>
   <v type="logical" >  F  F  F </v>
   <v type="logical" >  F  F  F </v>
   <v type="logical" >  F  F  F </v>
   <v type="logical" >  F  F  F </v>
   <v type="logical" >  T  T  T </v>
   <v type="logical" >  F  F  F </v>
   <v type="logical" >  F  F  F </v>
   <v type="logical" >  T  T  T </v>
   <v type="logical" >  F  F  F </v>
   <v type="logical" >  T  T  T </v>
   <v type="logical" >  F  F  F </v>
   <v type="logical" >  F  F  F </v>
   <v type="logical" >  F  F  F </v>
   <v type="logical" >  T  T  T </v>
   <v type="logical" >  T  T  T </v>
   <v type="logical" >  F  F  F </v>
   <v type="logical" >  F  F  F </v>
   <v type="logical" >  T  T  T </v>
   <v type="logical" >  F  F  F </v>
   <v type="logical" >  T  T  T </v>
  </varray>
  <nose>
   <v>      -3.00000000       0.00000000       0.00010000       0.00010000 </v>
  </nose>
 </structure>
 <calculation>
  <scstep>
   <time name="dav">   24.65   24.83</time>
   <time name="total">   24.78   24.96</time>
   <energy>
    <i name="alphaZ">     70.88689164 </i>
    <i name="ewald"> 117894.08104972 </i>
    <i name="hartreedc">-125649.78861175 </i>
    <i name="XCdc">    -54.48164652 </i>
    <i name="pawpsdc">   7367.55867867 </i>
    <i name="pawaedc">  -6674.44752893 </i>
    <i name="eentropy">     -0.03734483 </i>
    <i name="bandstr">   -293.47966472 </i>
    <i name="atom">   9090.78646416 </i>
    <i name="e_fr_energy">   1751.07828744 </i>
    <i name="e_wo_entrp">   1751.11563227 </i>
    <i name="e_0_energy">   1751.09695985 </i>
   </energy>
  </scstep>
  <scstep>
   <time name="dav">   33.07   33.31</time>
   <time name="total">   33.08   33.31</time>
   <energy>
    <i name="e_fr_energy">    -53.65409185 </i>
    <i name="e_wo_entrp">    -53.62280307 </i>
    <i name="e_0_energy">    -53.63844746 </i>
   </energy>
  </scstep>
  <scstep>
   <time name="dav">   25.73   26.02</time>
   <time name="total">   25.73   26.02</time>
   <energy>
    <i name="e_fr_energy">   -286.95806747 </i>
    <i name="e_wo_entrp">   -286.92547177 </i>
    <i name="e_0_energy">   -286.94176962 </i>
   </energy>
  </scstep>
  <scstep>
   <time name="dav">   28.51   28.76</time>
   <time name="total">   28.83   29.09</time>
   <energy>
    <i name="e_fr_energy">   -297.40228416 </i>
    <i name="e_wo_entrp">   -297.37173159 </i>
    <i name="e_0_energy">   -297.38700788 </i>
   </energy>
  </scstep>
  <scstep>
   <time name="dav">   31.41   31.70</time>
   <time name="total">   32.18   32.47</time>
   <energy>
    <i name="e_fr_energy">   -297.78190164 </i>
    <i name="e_wo_entrp">   -297.75159334 </i>
    <i name="e_0_energy">   -297.76674749 </i>
   </energy>
  </scstep>
  <scstep>
   <time name="dav">   29.12   29.32</time>
   <time name="total">   30.15   30.35</time>
   <energy>
    <i name="e_fr_energy">   -296.17675031 </i>
    <i name="e_wo_entrp">   -296.15196053 </i>
    <i name="e_0_energy">   -296.16435542 </i>
   </energy>
  </scstep>
  <scstep>
   <time name="dav">   36.32   36.67</time>
   <time name="total">   37.28   37.66</time>
   <energy>
    <i name="e_fr_energy">   -351.37866920 </i>
    <i name="e_wo_entrp">   -351.35610474 </i>
    <i name="e_0_energy">   -351.36738697 </i>
   </energy>
  </scstep>
  <scstep>
   <time name="dav">   35.67   35.97</time>
   <time name="total">   36.66   36.97</time>
   <energy>
    <i name="e_fr_energy">   -293.80108208 </i>
    <i name="e_wo_entrp">   -293.77318834 </i>
    <i name="e_0_energy">   -293.78713521 </i>
   </energy>
  </scstep>
  <scstep>
   <time name="dav">   26.71   26.96</time>
   <time name="total">   27.68   27.93</time>
   <energy>
    <i name="e_fr_energy">   -294.63931822 </i>
    <i name="e_wo_entrp">   -294.60352047 </i>
    <i name="e_0_energy">   -294.62141935 </i>
   </energy>
  </scstep>
  <scstep>
   <time name="dav">   27.81   28.61</time>
   <time name="total">   28.77   29.58</time>
   <energy>
    <i name="e_fr_energy">   -294.47021802 </i>
    <i name="e_wo_entrp">   -294.43520163 </i>
    <i name="e_0_energy">   -294.45270983 </i>
   </energy>
  </scstep>
  <scstep>
   <time name="dav">   27.88   28.17</time>
   <time name="total">   28.88   29.17</time>
   <energy>
    <i name="e_fr_energy">   -294.41079439 </i>
    <i name="e_wo_entrp">   -294.37162772 </i>
    <i name="e_0_energy">   -294.39121106 </i>
   </energy>
  </scstep>
  <scstep>
   <time name="dav">   28.23   28.63</time>
   <time name="total">   29.19   29.60</time>
   <energy>
    <i name="e_fr_energy">   -294.38640510 </i>
    <i name="e_wo_entrp">   -294.34823163 </i>
    <i name="e_0_energy">   -294.36731837 </i>
   </energy>
  </scstep>
  <scstep>
   <time name="dav">   26.81   27.09</time>
   <time name="total">   27.78   28.07</time>
   <energy>
    <i name="e_fr_energy">   -294.37860963 </i>
    <i name="e_wo_entrp">   -294.33893570 </i>
    <i name="e_0_energy">   -294.35877266 </i>
   </energy>
  </scstep>
  <scstep>
   <time name="dav">   28.34   28.79</time>
   <time name="total">   29.33   29.78</time>
   <energy>
    <i name="e_fr_energy">   -294.36004365 </i>
    <i name="e_wo_entrp">   -294.32187909 </i>
    <i name="e_0_energy">   -294.34096137 </i>
   </energy>
  </scstep>
  <scstep>
   <time name="dav">   27.54   27.72</time>
   <time name="total">   28.52   28.70</time>
   <energy>
    <i name="e_fr_energy">   -294.34370276 </i>
    <i name="e_wo_entrp">   -294.30397021 </i>
    <i name="e_0_energy">   -294.32383648 </i>
   </energy>
  </scstep>
  <scstep>
   <time name="dav">   25.40   25.54</time>
   <time name="total">   26.39   26.55</time>
   <energy>
    <i name="e_fr_energy">   -294.34356748 </i>
    <i name="e_wo_entrp">   -294.30352719 </i>
    <i name="e_0_energy">   -294.32354734 </i>
   </energy>
  </scstep>
  <scstep>
   <time name="dav">   27.30   28.85</time>
   <time name="total">   28.08   29.79</time>
   <energy>
    <i name="e_fr_energy">   -294.34300228 </i>
    <i name="e_wo_entrp">   -294.30305849 </i>
    <i name="e_0_energy">   -294.32303038 </i>
   </energy>
  </scstep>
  <scstep>
   <time name="dav">   25.89   26.03</time>
   <time name="total">   26.82   26.98</time>
   <energy>
    <i name="e_fr_energy">   -294.34214778 </i>
    <i name="e_wo_entrp">   -294.30233459 </i>
    <i name="e_0_energy">   -294.32224119 </i>
   </energy>
  </scstep>
  <scstep>
   <time name="dav">   28.20   28.46</time>
   <time name="total">   29.16   29.43</time>
   <energy>
    <i name="e_fr_energy">   -294.34164225 </i>
    <i name="e_wo_entrp">   -294.30177443 </i>
    <i name="e_0_energy">   -294.32170834 </i>
   </energy>
  </scstep>
  <scstep>
   <time name="dav">   19.18   19.31</time>
   <time name="total">   20.15   20.29</time>
   <energy>
    <i name="e_fr_energy">   -294.34179549 </i>
    <i name="e_wo_entrp">   -294.30196345 </i>
    <i name="e_0_energy">   -294.32187947 </i>
   </energy>
  </scstep>
  <scstep>
   <time name="dav">   17.12   17.24</time>
   <time name="total">   18.15   18.27</time>
   <energy>
    <i name="e_fr_energy">   -294.34198942 </i>
    <i name="e_wo_entrp">   -294.30216143 </i>
    <i name="e_0_energy">   -294.32207542 </i>
   </energy>
  </scstep>
  <scstep>
   <time name="dav">   17.56   17.91</time>
   <time name="total">   18.37   18.73</time>
   <energy>
    <i name="e_fr_energy">   -294.34253448 </i>
    <i name="e_wo_entrp">   -294.30269621 </i>
    <i name="e_0_energy">   -294.32261534 </i>
   </energy>
  </scstep>
  <scstep>
   <time name="dav">   20.36   20.50</time>
   <time name="total">   21.32   21.47</time>
   <energy>
    <i name="e_fr_energy">   -294.34319565 </i>
    <i name="e_wo_entrp">   -294.30334500 </i>
    <i name="e_0_energy">   -294.32327033 </i>
   </energy>
  </scstep>
  <scstep>
   <time name="dav">   17.36   17.67</time>
   <time name="total">   18.34   18.66</time>
   <energy>
    <i name="e_fr_energy">   -294.34331514 </i>
    <i name="e_wo_entrp">   -294.30346833 </i>
    <i name="e_0_energy">   -294.32339174 </i>
   </energy>
  </scstep>
  <scstep>
   <time name="dav">   16.34   16.50</time>
   <time name="total">   17.44   17.61</time>
   <energy>
    <i name="e_fr_energy">   -294.34342246 </i>
    <i name="e_wo_entrp">   -294.30357756 </i>
    <i name="e_0_energy">   -294.32350001 </i>
   </energy>
  </scstep>
  <scstep>
   <time name="dav">   19.09   19.50</time>
   <time name="total">   20.08   20.49</time>
   <energy>
    <i name="e_fr_energy">   -294.34389174 </i>
    <i name="e_wo_entrp">   -294.30405230 </i>
    <i name="e_0_energy">   -294.32397202 </i>
   </energy>
  </scstep>
  <scstep>
   <time name="dav">   16.17   16.44</time>
   <time name="total">   16.30   16.57</time>
   <energy>
    <i name="alphaZ">     70.88689164 </i>
    <i name="ewald"> 117894.08104972 </i>
    <i name="hartreedc">-125881.09425487 </i>
    <i name="XCdc">    -41.62260063 </i>
    <i name="pawpsdc">  31191.74247876 </i>
    <i name="pawaedc"> -30501.99749870 </i>
    <i name="eentropy">     -0.03983831 </i>
    <i name="bandstr">  -2117.08666517 </i>
    <i name="atom">   9090.78646416 </i>
    <i name="e_fr_energy">   -294.34397340 </i>
    <i name="e_wo_entrp">   -294.30413509 </i>
    <i name="e_0_energy">   -294.32405425 </i>
   </energy>
  </scstep>
  <structure>
   <crystal>
    <varray name="basis" >
     <v>       8.15364985       0.00000000      -0.00000000 </v>
     <v>      -4.07682492      11.76877984       3.32871361 </v>
     <v>       0.00000000       0.00000000      39.94456335 </v>
    </varray>
    <i name="volume">   3833.02078075 </i>
    <varray name="rec_basis" >
     <v>       0.12264446       0.04248529      -0.00000000 </v>
     <v>      -0.00000000       0.08497058       0.00000000 </v>
     <v>       0.00000000      -0.00708088       0.02503470 </v>
    </varray>
   </crystal>
   <varray name="positions" >
    <v>       0.36720143       0.73440286       0.51693405 </v>
    <v>       0.16720143       0.33440286       0.46693405 </v>
    <v>       0.56720143       0.13440286       0.56693405 </v>
    <v>       0.96720143       0.93440286       0.41693405 </v>
    <v>       0.76720143       0.53440286       0.61693405 </v>
    <v>       0.96720143       0.43440286       0.54193405 </v>
    <v>       0.76720143       0.03440286       0.49193405 </v>
    <v>       0.16720143       0.83440286       0.59193405 </v>
    <v>       0.56720143       0.63440286       0.44193405 </v>
    <v>       0.36720143       0.23440286       0.39193405 </v>
    <v>       0.46720143       0.43440286       0.54193405 </v>
    <v>       0.26720143       0.03440286       0.49193405 </v>
    <v>       0.66720143       0.83440286       0.59193405 </v>
    <v>       0.06720143       0.63440286       0.44193405 </v>
    <v>       0.86720143       0.23440286       0.39193405 </v>
    <v>       0.26720143       0.53440286       0.61693405 </v>
    <v>       0.06720143       0.13440286       0.56693405 </v>
    <v>       0.46720143       0.93440286       0.41693405 </v>
    <v>       0.86720143       0.73440286       0.51693405 </v>
    <v>       0.66720143       0.33440286       0.46693405 </v>
    <v>       0.68012746       0.57793984       0.49737617 </v>
    <v>       0.48012746       0.17793984       0.44737617 </v>
    <v>       0.88012746       0.97793984       0.54737617 </v>
    <v>       0.28012746       0.77793984       0.39737617 </v>
    <v>       0.08012746       0.37793984       0.59737617 </v>
    <v>       0.12366445       0.74732889       0.48326042 </v>
    <v>       0.92366445       0.34732889       0.43326042 </v>
    <v>       0.32366445       0.14732889       0.53326042 </v>
    <v>       0.72366445       0.94732889       0.38326042 </v>
    <v>       0.52366445       0.54732889       0.58326042 </v>
    <v>       0.99781238       0.27793984       0.52237617 </v>
    <v>       0.79781238       0.87793984       0.47237617 </v>
    <v>       0.19781238       0.67793984       0.57237617 </v>
    <v>       0.59781238       0.47793984       0.42237617 </v>
    <v>       0.39781238       0.07793984       0.37237617 </v>
    <v>       0.26720143       0.53440286       0.46472343 </v>
    <v>       0.06720143       0.13440286       0.41472343 </v>
    <v>       0.46720143       0.93440286       0.51472343 </v>
    <v>       0.86720143       0.73440286       0.61472343 </v>
    <v>       0.66720143       0.33440286       0.56472343 </v>
    <v>       0.85427540       0.49086587       0.48649193 </v>
    <v>       0.65427540       0.09086587       0.43649193 </v>
    <v>       0.05427540       0.89086587       0.53649193 </v>
    <v>       0.45427540       0.69086587       0.38649193 </v>
    <v>       0.25427540       0.29086587       0.58649193 </v>
    <v>       0.41073841       0.32147683       0.50060768 </v>
    <v>       0.21073841       0.92147683       0.45060768 </v>
    <v>       0.61073841       0.72147683       0.55060768 </v>
    <v>       0.01073841       0.52147683       0.40060768 </v>
    <v>       0.81073841       0.12147683       0.60060768 </v>
    <v>       0.53659048       0.79086587       0.46149193 </v>
    <v>       0.33659048       0.39086587       0.41149193 </v>
    <v>       0.73659048       0.19086587       0.51149193 </v>
    <v>       0.13659048       0.99086587       0.61149193 </v>
    <v>       0.93659048       0.59086587       0.56149193 </v>
    <v>       0.26720143       0.53440286       0.51914466 </v>
    <v>       0.06720143       0.13440286       0.46914466 </v>
    <v>       0.46720143       0.93440286       0.56914466 </v>
    <v>       0.86720143       0.73440286       0.41914466 </v>
    <v>       0.66720143       0.33440286       0.61914466 </v>
   </varray>
  </structure>
  <varray name="forces" >
   <v>       0.26888947       0.16507769      -0.23185675 </v>
   <v>       0.04490589      -0.26170265       0.24089198 </v>
   <v>       1.17206220       0.24818687      -0.77501532 </v>
   <v>      -1.04133348      -0.70455050       0.76686481 </v>
   <v>      -0.40056146       0.37007677      -1.71102702 </v>
   <v>       0.18934782      -0.04289542      -0.08108806 </v>
   <v>       0.02434826      -0.12874850      -0.12038649 </v>
   <v>      -1.23860702       1.07813112      -0.96572454 </v>
   <v>       0.01111551       0.19566408      -0.19956422 </v>
   <v>       0.01501847      -1.45389256       1.18872897 </v>
   <v>      -0.14447154      -0.10047664       0.01515329 </v>
   <v>      -0.18809781      -0.04534783      -0.01505448 </v>
   <v>       0.85379206       0.20864314      -1.29464650 </v>
   <v>      -0.00500812      -0.20082913      -0.41236514 </v>
   <v>      -0.10033351      -0.32558669       0.43493615 </v>
   <v>       0.07184471      -0.08935568      -0.65963000 </v>
   <v>      -0.18924829      -0.43747870       0.43491265 </v>
   <v>       0.27277367       0.41430120      -0.13869767 </v>
   <v>       0.14546590       0.15609455      -0.00686302 </v>
   <v>      -0.28347185       0.06164512      -0.05535751 </v>
   <v>      -0.08097611       0.01003720      -0.09747940 </v>
   <v>      -0.03006822       0.28792670      -0.17442562 </v>
   <v>      -0.22810566      -0.07530025       0.23537578 </v>
   <v>       0.69178047      -0.28206270      -0.30950538 </v>
   <v>       0.01936766      -0.16423381      -0.16974969 </v>
   <v>      -0.21482155      -0.06426524       0.04482545 </v>
   <v>       0.03960829       0.52476926      -0.41799833 </v>
   <v>      -0.16518072       0.13440015       0.27758670 </v>
   <v>      -0.03478978      -0.70766647      -0.27854456 </v>
   <v>      -0.01739474      -0.17333432       0.56767240 </v>
   <v>       0.09733856      -0.06604719      -0.12601491 </v>
   <v>       0.11284698      -0.05072875      -0.18413263 </v>
   <v>       0.24285901      -0.36226455       0.41799991 </v>
   <v>       0.24273570      -0.35913010      -0.15245287 </v>
   <v>      -0.04873711       0.17524585      -0.20406341 </v>
   <v>      -0.04748020       0.11230855       0.06262070 </v>
   <v>       0.18224299       0.36495880      -0.29398122 </v>
   <v>       0.09741671      -0.16367614      -0.01247500 </v>
   <v>       0.30039081      -0.01390041       1.06689266 </v>
   <v>      -0.11117591       0.35577624       0.74736089 </v>
   <v>       0.16870624       0.02820742       0.29037613 </v>
   <v>       0.28197481       0.03217770      -0.12465584 </v>
   <v>       0.32327919      -0.33139346       0.11520686 </v>
   <v>      -0.35068258       1.18454910       0.26769024 </v>
   <v>      -0.12607246       0.09125056       0.46910677 </v>
   <v>       0.15634516      -0.02948651      -0.16289325 </v>
   <v>       0.12514860       0.06148473      -0.08438900 </v>
   <v>      -0.21172601       0.44004241       0.35537940 </v>
   <v>      -0.24927597       0.00704457       0.10605871 </v>
   <v>      -0.17805435      -0.05901609       0.33034916 </v>
   <v>      -0.18585687      -0.01813093       0.23566993 </v>
   <v>       0.41371804       0.79418629      -0.53797694 </v>
   <v>      -0.27852735       0.07284216       0.10775355 </v>
   <v>      -0.03301521      -0.39263275       0.12139238 </v>
   <v>      -0.34361679       0.00715679       0.36158756 </v>
   <v>       0.02661402      -0.21473162       0.05439385 </v>
   <v>       0.04838266      -0.07308639       0.26990572 </v>
   <v>      -0.31358660      -0.11337260       0.36962189 </v>
   <v>      -0.01742618       0.31349253      -0.20690194 </v>
   <v>       0.21738360      -0.39035299       0.24860219 </v>
  </varray>
  <energy>
   <i name="e_fr_energy">   -294.34397340 </i>
   <i name="e_wo_entrp">   -294.30413509 </i>
   <i name="e_0_energy">   -294.32405425 </i>
  </energy>
  <time name="totalsc">  718.16  727.32</time>
 </calculation>
 <calculation>
  <scstep>
   <time name="dav">   24.18   24.42</time>
   <time name="total">   25.02   25.35</time>
   <energy>
    <i name="alphaZ">     70.88689164 </i>
    <i name="ewald"> 117895.32532440 </i>
    <i name="hartreedc">-125880.15908266 </i>
    <i name="XCdc">    -41.31239407 </i>
    <i name="pawpsdc">  31191.86845417 </i>
    <i name="pawaedc"> -30502.12340467 </i>
    <i name="eentropy">     -0.03732406 </i>
    <i name="bandstr">  -2120.19099013 </i>
    <i name="atom">   9090.78646416 </i>
    <i name="e_fr_energy">   -294.95606122 </i>
    <i name="e_wo_entrp">   -294.91873716 </i>
    <i name="e_0_energy">   -294.93739919 </i>
   </energy>
  </scstep>
  <scstep>
   <time name="dav">   27.80   28.21</time>
   <time name="total">   28.77   29.18</time>
   <energy>
    <i name="e_fr_energy">   -295.02746045 </i>
    <i name="e_wo_entrp">   -294.99183027 </i>
    <i name="e_0_energy">   -295.00964536 </i>
   </energy>
  </scstep>
  <scstep>
   <time name="dav">   32.10   32.27</time>
   <time name="total">   33.08   33.25</time>
   <energy>
    <i name="e_fr_energy">   -295.09907168 </i>
    <i name="e_wo_entrp">   -295.05845497 </i>
    <i name="e_0_energy">   -295.07876332 </i>
   </energy>
  </scstep>
  <scstep>
   <time name="dav">   30.70   31.52</time>
   <time name="total">   31.69   32.51</time>
   <energy>
    <i name="e_fr_energy">   -295.02182881 </i>
    <i name="e_wo_entrp">   -294.98562767 </i>
    <i name="e_0_energy">   -295.00372824 </i>
   </energy>
  </scstep>
  <scstep>
   <time name="dav">   28.08   28.34</time>
   <time name="total">   29.46   29.72</time>
   <energy>
    <i name="e_fr_energy">   -295.01971047 </i>
    <i name="e_wo_entrp">   -294.98284571 </i>
    <i name="e_0_energy">   -295.00127809 </i>
   </energy>
  </scstep>
  <scstep>
   <time name="dav">   27.53   28.09</time>
   <time name="total">   28.61   29.18</time>
   <energy>
    <i name="e_fr_energy">   -295.01962611 </i>
    <i name="e_wo_entrp">   -294.98245771 </i>
    <i name="e_0_energy">   -295.00104191 </i>
   </energy>
  </scstep>
  <scstep>
   <time name="dav">   25.84   26.28</time>
   <time name="total">   26.66   27.10</time>
   <energy>
    <i name="e_fr_energy">   -295.01957309 </i>
    <i name="e_wo_entrp">   -294.98243963 </i>
    <i name="e_0_energy">   -295.00100636 </i>
   </energy>
  </scstep>
  <scstep>
   <time name="dav">   24.78   24.98</time>
   <time name="total">   25.94   26.14</time>
   <energy>
    <i name="e_fr_energy">   -295.01965853 </i>
    <i name="e_wo_entrp">   -294.98248311 </i>
    <i name="e_0_energy">   -295.00107082 </i>
   </energy>
  </scstep>
  <scstep>
   <time name="dav">   21.67   21.89</time>
   <time name="total">   22.64   22.86</time>
   <energy>
    <i name="e_fr_energy">   -295.01961701 </i>
    <i name="e_wo_entrp">   -294.98250023 </i>
    <i name="e_0_energy">   -295.00105862 </i>
   </energy>
  </scstep>
  <scstep>
   <time name="dav">   17.31   17.43</time>
   <time name="total">   17.44   17.56</time>
   <energy>
    <i name="alphaZ">     70.88689164 </i>
    <i name="ewald"> 117895.32532440 </i>
    <i name="hartreedc">-125877.77510713 </i>
    <i name="XCdc">    -41.21898101 </i>
    <i name="pawpsdc">  31383.13640439 </i>
    <i name="pawaedc"> -30693.45574246 </i>
    <i name="eentropy">     -0.03712410 </i>
    <i name="bandstr">  -2122.66773176 </i>
    <i name="atom">   9090.78646416 </i>
    <i name="e_fr_energy">   -295.01960188 </i>
    <i name="e_wo_entrp">   -294.98247777 </i>
    <i name="e_0_energy">   -295.00103982 </i>
   </energy>
  </scstep>
  <structure>
   <crystal>
    <varray name="basis" >
     <v>       8.15364985       0.00000000       0.00000000 </v>
     <v>      -4.07682492      11.76877984       3.32871361 </v>
     <v>       0.00000000       0.00000000      39.94456335 </v>
    </varray>
    <i name="volume">   3833.02078075 </i>
    <varray name="rec_basis" >
     <v>       0.12264446       0.04248529      -0.00000000 </v>
     <v>       0.00000000       0.08497058       0.00000000 </v>
     <v>       0.00000000      -0.00708088       0.02503470 </v>
    </varray>
   </crystal>
   <varray name="positions" >
    <v>       0.36720143       0.73440286       0.51693405 </v>
    <v>       0.16720143       0.33440286       0.46693405 </v>
    <v>       0.57464485       0.13542023       0.56591325 </v>
    <v>       0.96720143       0.93440286       0.41693405 </v>
    <v>       0.76558994       0.53591988       0.61474116 </v>
    <v>       0.96720143       0.43440286       0.54193405 </v>
    <v>       0.76720143       0.03440286       0.49193405 </v>
    <v>       0.16208271       0.83882234       0.59039942 </v>
    <v>       0.56720143       0.63440286       0.44193405 </v>
    <v>       0.36720143       0.23440286       0.39193405 </v>
    <v>       0.46720143       0.43440286       0.54193405 </v>
    <v>       0.26720143       0.03440286       0.49193405 </v>
    <v>       0.67268069       0.83525813       0.59029918 </v>
    <v>       0.06720143       0.63440286       0.44193405 </v>
    <v>       0.86720143       0.23440286       0.39193405 </v>
    <v>       0.26744337       0.53403657       0.61616791 </v>
    <v>       0.06518505       0.13260954       0.56760875 </v>
    <v>       0.46720143       0.93440286       0.41693405 </v>
    <v>       0.86720143       0.73440286       0.51693405 </v>
    <v>       0.66720143       0.33440286       0.46693405 </v>
    <v>       0.68012746       0.57793984       0.49737617 </v>
    <v>       0.48012746       0.17793984       0.44737617 </v>
    <v>       0.88012746       0.97793984       0.54737617 </v>
    <v>       0.28012746       0.77793984       0.39737617 </v>
    <v>       0.07990544       0.37726661       0.59722726 </v>
    <v>       0.12366445       0.74732889       0.48326042 </v>
    <v>       0.92366445       0.34732889       0.43326042 </v>
    <v>       0.32366445       0.14732889       0.53326042 </v>
    <v>       0.72366445       0.94732889       0.38326042 </v>
    <v>       0.52320626       0.54661836       0.58400523 </v>
    <v>       0.99781238       0.27793984       0.52237617 </v>
    <v>       0.79781238       0.87793984       0.47237617 </v>
    <v>       0.19850680       0.67645484       0.57300476 </v>
    <v>       0.59781238       0.47793984       0.42237617 </v>
    <v>       0.39781238       0.07793984       0.37237617 </v>
    <v>       0.26720143       0.53440286       0.46472343 </v>
    <v>       0.06720143       0.13440286       0.41472343 </v>
    <v>       0.46720143       0.93440286       0.51472343 </v>
    <v>       0.86895026       0.73434588       0.61601671 </v>
    <v>       0.66727284       0.33586126       0.56550451 </v>
    <v>       0.85427540       0.49086587       0.48649193 </v>
    <v>       0.65427540       0.09086587       0.43649193 </v>
    <v>       0.05427540       0.89086587       0.53649193 </v>
    <v>       0.45427540       0.69086587       0.38649193 </v>
    <v>       0.25371650       0.29123992       0.58702732 </v>
    <v>       0.41073841       0.32147683       0.50060768 </v>
    <v>       0.21073841       0.92147683       0.45060768 </v>
    <v>       0.61038760       0.72328065       0.55088657 </v>
    <v>       0.01073841       0.52147683       0.40060768 </v>
    <v>       0.80956396       0.12123491       0.60102682 </v>
    <v>       0.53659048       0.79086587       0.46149193 </v>
    <v>       0.33659048       0.39086587       0.41149193 </v>
    <v>       0.73659048       0.19086587       0.51149193 </v>
    <v>       0.13559040       0.98925639       0.61177266 </v>
    <v>       0.93457207       0.59089521       0.56192619 </v>
    <v>       0.26720143       0.53440286       0.51914466 </v>
    <v>       0.06720143       0.13440286       0.46914466 </v>
    <v>       0.46511367       0.93393812       0.56962980 </v>
    <v>       0.86720143       0.73440286       0.41914466 </v>
    <v>       0.66768755       0.33280272       0.61957825 </v>
   </varray>
  </structure>
  <varray name="forces" >
   <v>       0.23984039       0.17799560      -0.20718348 </v>
   <v>       0.03131426      -0.27206111       0.25016393 </v>
   <v>       0.92300206       0.24155271      -0.56852153 </v>
   <v>      -1.06195873      -0.69331461       0.76027252 </v>
   <v>      -0.31324811       0.19384380      -1.07071046 </v>
   <v>       0.09333653       0.00043000      -0.08255694 </v>
   <v>       0.02984255      -0.14888453      -0.13775661 </v>
   <v>      -0.92456146       0.69217208      -0.65361701 </v>
   <v>       0.00486838       0.20021313      -0.20034672 </v>
   <v>       0.01196830      -1.45820084       1.18803511 </v>
   <v>      -0.17710769      -0.09221710       0.06663372 </v>
   <v>      -0.20339316      -0.01449521       0.01294689 </v>
   <v>       0.76429336       0.11805018      -0.91228344 </v>
   <v>      -0.00738198      -0.19348615      -0.41157286 </v>
   <v>      -0.10085248      -0.31789501       0.41822863 </v>
   <v>       0.00338496      -0.22049681      -0.37336877 </v>
   <v>      -0.16910002      -0.31496815       0.39717595 </v>
   <v>       0.27424838       0.40467379      -0.13258902 </v>
   <v>       0.12110582       0.15566497       0.00640642 </v>
   <v>      -0.30107546       0.08461359      -0.06697843 </v>
   <v>      -0.08661845       0.01886212      -0.06302244 </v>
   <v>      -0.03093352       0.28629121      -0.17886956 </v>
   <v>      -0.12701755       0.10279183       0.03126302 </v>
   <v>       0.68307328      -0.28039900      -0.29600300 </v>
   <v>      -0.10137189      -0.05331075      -0.07416160 </v>
   <v>      -0.21554124      -0.08299085       0.07640204 </v>
   <v>       0.04388023       0.51924086      -0.41645845 </v>
   <v>      -0.12287149       0.10479459       0.35133002 </v>
   <v>      -0.01212458      -0.71024767      -0.28885044 </v>
   <v>      -0.15517224       0.15342986       0.06676746 </v>
   <v>       0.14929682      -0.10794002      -0.09184915 </v>
   <v>       0.12120349      -0.04701758      -0.17093680 </v>
   <v>      -0.07813660      -0.12268302       0.30052199 </v>
   <v>       0.25239952      -0.36439254      -0.13928198 </v>
   <v>      -0.04877320       0.18555231      -0.20723664 </v>
   <v>      -0.05113121       0.12385151       0.06386076 </v>
   <v>       0.17686454       0.36882500      -0.29765623 </v>
   <v>       0.10185759      -0.20277739       0.15176531 </v>
   <v>       0.03837433      -0.01538086       1.08411892 </v>
   <v>      -0.02990014       0.16364015       0.40702753 </v>
   <v>       0.17648676       0.00914401       0.32006190 </v>
   <v>       0.28219243       0.03275619      -0.11367367 </v>
   <v>       0.14876177      -0.20778282      -0.25030988 </v>
   <v>      -0.35205959       1.19225040       0.26746141 </v>
   <v>       0.00780084      -0.04626073       0.32550827 </v>
   <v>       0.14664795      -0.04239210      -0.11835946 </v>
   <v>       0.12894943       0.05639489      -0.07238005 </v>
   <v>      -0.12262260      -0.03937990       0.07464479 </v>
   <v>      -0.26040660       0.00143854       0.09914865 </v>
   <v>      -0.12009068      -0.02707933       0.30958861 </v>
   <v>      -0.19202329      -0.02550981       0.25362525 </v>
   <v>       0.41264851       0.79754075      -0.54422081 </v>
   <v>      -0.13243019       0.14681576      -0.07355995 </v>
   <v>      -0.07616975      -0.34422448       0.18193154 </v>
   <v>       0.03630597       0.10806229      -0.07209335 </v>
   <v>       0.02502163      -0.20993684       0.08098164 </v>
   <v>       0.05586249      -0.07499394       0.27021373 </v>
   <v>      -0.09972184      -0.03383029       0.25678149 </v>
   <v>      -0.01307750       0.30485217      -0.23335033 </v>
   <v>       0.20204064      -0.18119490       0.44689157 </v>
  </varray>
  <energy>
   <i name="e_fr_energy">   -295.01960188 </i>
   <i name="e_wo_entrp">   -294.98247777 </i>
   <i name="e_0_energy">   -295.00103982 </i>
  </energy>
  <time name="totalsc">  276.99  280.71</time>
 </calculation>
 <calculation>
  <scstep>
   <time name="dav">   23.20   23.37</time>
   <time name="total">   24.19   24.37</time>
   <energy>
    <i name="alphaZ">     70.88689164 </i>
    <i name="ewald"> 117894.75955739 </i>
    <i name="hartreedc">-125872.69679788 </i>
    <i name="XCdc">    -40.78790339 </i>
    <i name="pawpsdc">  31383.26202201 </i>
    <i name="pawaedc"> -30693.58125472 </i>
    <i name="eentropy">     -0.03347111 </i>
    <i name="bandstr">  -2127.86820687 </i>
    <i name="atom">   9090.78646416 </i>
    <i name="e_fr_energy">   -295.27269878 </i>
    <i name="e_wo_entrp">   -295.23922767 </i>
    <i name="e_0_energy">   -295.25596322 </i>
   </energy>
  </scstep>
  <scstep>
   <time name="dav">   28.60   28.97</time>
   <time name="total">   29.64   30.02</time>
   <energy>
    <i name="e_fr_energy">   -295.43528686 </i>
    <i name="e_wo_entrp">   -295.40340366 </i>
    <i name="e_0_energy">   -295.41934526 </i>
   </energy>
  </scstep>
  <scstep>
   <time name="dav">   31.43   31.57</time>
   <time name="total">   32.42   32.56</time>
   <energy>
    <i name="e_fr_energy">   -295.60288908 </i>
    <i name="e_wo_entrp">   -295.56674437 </i>
    <i name="e_0_energy">   -295.58481672 </i>
   </energy>
  </scstep>
  <scstep>
   <time name="dav">   34.77   34.99</time>
   <time name="total">   35.74   35.96</time>
   <energy>
    <i name="e_fr_energy">   -295.42009027 </i>
    <i name="e_wo_entrp">   -295.38820227 </i>
    <i name="e_0_energy">   -295.40414627 </i>
   </energy>
  </scstep>
  <scstep>
   <time name="dav">   26.96   27.14</time>
   <time name="total">   28.04   28.21</time>
   <energy>
    <i name="e_fr_energy">   -295.41541138 </i>
    <i name="e_wo_entrp">   -295.38300059 </i>
    <i name="e_0_energy">   -295.39920598 </i>
   </energy>
  </scstep>
  <scstep>
   <time name="dav">   27.58   27.72</time>
   <time name="total">   28.57   28.72</time>
   <energy>
    <i name="e_fr_energy">   -295.41486954 </i>
    <i name="e_wo_entrp">   -295.38212417 </i>
    <i name="e_0_energy">   -295.39849686 </i>
   </energy>
  </scstep>
  <scstep>
   <time name="dav">   27.50   28.07</time>
   <time name="total">   28.47   29.05</time>
   <energy>
    <i name="e_fr_energy">   -295.41474523 </i>
    <i name="e_wo_entrp">   -295.38191507 </i>
    <i name="e_0_energy">   -295.39833015 </i>
   </energy>
  </scstep>
  <scstep>
   <time name="dav">   26.98   27.39</time>
   <time name="total">   27.99   28.40</time>
   <energy>
    <i name="e_fr_energy">   -295.41479263 </i>
    <i name="e_wo_entrp">   -295.38193231 </i>
    <i name="e_0_energy">   -295.39836247 </i>
   </energy>
  </scstep>
  <scstep>
   <time name="dav">   26.13   26.26</time>
   <time name="total">   26.93   27.08</time>
   <energy>
    <i name="e_fr_energy">   -295.41481606 </i>
    <i name="e_wo_entrp">   -295.38207613 </i>
    <i name="e_0_energy">   -295.39844609 </i>
   </energy>
  </scstep>
  <scstep>
   <time name="dav">   18.60   18.71</time>
   <time name="total">   18.71   18.81</time>
   <energy>
    <i name="alphaZ">     70.88689164 </i>
    <i name="ewald"> 117894.75955739 </i>
    <i name="hartreedc">-125869.91279846 </i>
    <i name="XCdc">    -40.64143619 </i>
    <i name="pawpsdc">  31734.12882551 </i>
    <i name="pawaedc"> -31044.56667508 </i>
    <i name="eentropy">     -0.03277708 </i>
    <i name="bandstr">  -2130.82283345 </i>
    <i name="atom">   9090.78646416 </i>
    <i name="e_fr_energy">   -295.41478157 </i>
    <i name="e_wo_entrp">   -295.38200449 </i>
    <i name="e_0_energy">   -295.39839303 </i>
   </energy>
  </scstep>
  <structure>
   <crystal>
    <varray name="basis" >
     <v>       8.15364985       0.00000000       0.00000000 </v>
     <v>      -4.07682492      11.76877984       3.32871361 </v>
     <v>       0.00000000       0.00000000      39.94456335 </v>
    </varray>
    <i name="volume">   3833.02078075 </i>
    <varray name="rec_basis" >
     <v>       0.12264446       0.04248529      -0.00000000 </v>
     <v>       0.00000000       0.08497058       0.00000000 </v>
     <v>       0.00000000      -0.00708088       0.02503470 </v>
    </varray>
   </crystal>
   <varray name="positions" >
    <v>       0.36720143       0.73440286       0.51693405 </v>
    <v>       0.16720143       0.33440286       0.46693405 </v>
    <v>       0.58524082       0.13686849       0.56446011 </v>
    <v>       0.96720143       0.93440286       0.41693405 </v>
    <v>       0.76329593       0.53807941       0.61161949 </v>
    <v>       0.96720143       0.43440286       0.54193405 </v>
    <v>       0.76720143       0.03440286       0.49193405 </v>
    <v>       0.15479603       0.84511363       0.58821481 </v>
    <v>       0.56720143       0.63440286       0.44193405 </v>
    <v>       0.36720143       0.23440286       0.39193405 </v>
    <v>       0.46720143       0.43440286       0.54193405 </v>
    <v>       0.26720143       0.03440286       0.49193405 </v>
    <v>       0.68048062       0.83647564       0.58797189 </v>
    <v>       0.06720143       0.63440286       0.44193405 </v>
    <v>       0.86720143       0.23440286       0.39193405 </v>
    <v>       0.26778778       0.53351515       0.61507729 </v>
    <v>       0.06231466       0.13005670       0.56856922 </v>
    <v>       0.46720143       0.93440286       0.41693405 </v>
    <v>       0.86720143       0.73440286       0.51693405 </v>
    <v>       0.66720143       0.33440286       0.46693405 </v>
    <v>       0.68012746       0.57793984       0.49737617 </v>
    <v>       0.48012746       0.17793984       0.44737617 </v>
    <v>       0.88012746       0.97793984       0.54737617 </v>
    <v>       0.28012746       0.77793984       0.39737617 </v>
    <v>       0.07958938       0.37630825       0.59701528 </v>
    <v>       0.12366445       0.74732889       0.48326042 </v>
    <v>       0.92366445       0.34732889       0.43326042 </v>
    <v>       0.32366445       0.14732889       0.53326042 </v>
    <v>       0.72366445       0.94732889       0.38326042 </v>
    <v>       0.52255402       0.54560689       0.58506550 </v>
    <v>       0.99781238       0.27793984       0.52237617 </v>
    <v>       0.79781238       0.87793984       0.47237617 </v>
    <v>       0.19949534       0.67434090       0.57389957 </v>
    <v>       0.59781238       0.47793984       0.42237617 </v>
    <v>       0.39781238       0.07793984       0.37237617 </v>
    <v>       0.26720143       0.53440286       0.46472343 </v>
    <v>       0.06720143       0.13440286       0.41472343 </v>
    <v>       0.46720143       0.93440286       0.51472343 </v>
    <v>       0.87143978       0.73426477       0.61785773 </v>
    <v>       0.66737449       0.33793734       0.56661642 </v>
    <v>       0.85427540       0.49086587       0.48649193 </v>
    <v>       0.65427540       0.09086587       0.43649193 </v>
    <v>       0.05427540       0.89086587       0.53649193 </v>
    <v>       0.45427540       0.69086587       0.38649193 </v>
    <v>       0.25292087       0.29177241       0.58778946 </v>
    <v>       0.41073841       0.32147683       0.50060768 </v>
    <v>       0.21073841       0.92147683       0.45060768 </v>
    <v>       0.60988822       0.72584846       0.55128357 </v>
    <v>       0.01073841       0.52147683       0.40060768 </v>
    <v>       0.80789208       0.12089053       0.60162347 </v>
    <v>       0.53659048       0.79086587       0.46149193 </v>
    <v>       0.33659048       0.39086587       0.41149193 </v>
    <v>       0.73659048       0.19086587       0.51149193 </v>
    <v>       0.13416675       0.98696523       0.61217230 </v>
    <v>       0.93169880       0.59093697       0.56254437 </v>
    <v>       0.26720143       0.53440286       0.51914466 </v>
    <v>       0.06720143       0.13440286       0.46914466 </v>
    <v>       0.46214166       0.93327655       0.57032040 </v>
    <v>       0.86720143       0.73440286       0.41914466 </v>
    <v>       0.66837957       0.33052487       0.62019548 </v>
   </varray>
  </structure>
  <varray name="forces" >
   <v>       0.17206241       0.18695903      -0.17476324 </v>
   <v>       0.01269748      -0.27599350       0.26524789 </v>
   <v>       0.39969765       0.10734554      -0.00848072 </v>
   <v>      -1.07639170      -0.68255452       0.75503981 </v>
   <v>      -0.14250142      -0.17912943       0.37375228 </v>
   <v>      -0.03985788       0.04608641      -0.08497461 </v>
   <v>       0.01762835      -0.16415063      -0.18686330 </v>
   <v>      -0.31048365      -0.02859953       0.23277745 </v>
   <v>      -0.00569386       0.20790568      -0.21014213 </v>
   <v>       0.00985102      -1.46546441       1.18505583 </v>
   <v>      -0.22407866      -0.09951890       0.12579662 </v>
   <v>      -0.18874734       0.05059573       0.03643166 </v>
   <v>       0.52027460      -0.01282804       0.04671687 </v>
   <v>      -0.00584366      -0.18627009      -0.41651296 </v>
   <v>      -0.09896146      -0.30989177       0.39690132 </v>
   <v>      -0.11441465      -0.45882952       0.05322516 </v>
   <v>      -0.12306251      -0.12000218       0.39250804 </v>
   <v>       0.27577252       0.39623539      -0.12548174 </v>
   <v>       0.08454064       0.13357447       0.00094289 </v>
   <v>      -0.32941546       0.12071000      -0.08731659 </v>
   <v>      -0.09355546       0.03255728      -0.00635851 </v>
   <v>      -0.03491140       0.27692863      -0.19051678 </v>
   <v>       0.08656779       0.49422957      -0.29761862 </v>
   <v>       0.66631481      -0.27283689      -0.27625647 </v>
   <v>      -0.29084399       0.12398603       0.08491822 </v>
   <v>      -0.21698827      -0.09544821       0.12466122 </v>
   <v>       0.04743570       0.50855589      -0.41131547 </v>
   <v>      -0.05178459       0.07572886       0.42846015 </v>
   <v>       0.01195907      -0.71419327      -0.30178988 </v>
   <v>      -0.54101447       0.54861885      -0.72479751 </v>
   <v>       0.22357173      -0.16179591      -0.04428414 </v>
   <v>       0.13592084      -0.04246291      -0.15053815 </v>
   <v>      -0.51653205       0.27702395       0.07405212 </v>
   <v>       0.25808016      -0.36768415      -0.12779890 </v>
   <v>      -0.04810664       0.20044506      -0.20963864 </v>
   <v>      -0.05483977       0.13871574       0.07021171 </v>
   <v>       0.16751577       0.37612818      -0.30140542 </v>
   <v>       0.08798290      -0.24020876       0.36911255 </v>
   <v>      -0.27334010       0.03248600       0.85844793 </v>
   <v>       0.09279930      -0.11255437      -0.13445196 </v>
   <v>       0.18652924      -0.01466398       0.35579387 </v>
   <v>       0.28459990       0.03644927      -0.09944155 </v>
   <v>      -0.25952713       0.04056662      -1.06767490 </v>
   <v>      -0.34419573       1.19638681       0.26441960 </v>
   <v>       0.23950657      -0.25283965       0.09739808 </v>
   <v>       0.12393419      -0.06971028      -0.05287560 </v>
   <v>       0.12832421       0.04298944      -0.06092265 </v>
   <v>       0.00625754      -0.81629499      -0.53881633 </v>
   <v>      -0.26789605      -0.00263285       0.09615450 </v>
   <v>      -0.03109127       0.00381277       0.23064259 </v>
   <v>      -0.20060279      -0.03443070       0.28131715 </v>
   <v>       0.41604486       0.79640450      -0.54964737 </v>
   <v>       0.15925410       0.30562920      -0.49918959 </v>
   <v>      -0.17037749      -0.20200733       0.24657256 </v>
   <v>       0.77616738       0.35946875      -0.99429308 </v>
   <v>       0.02074550      -0.19605834       0.11295185 </v>
   <v>       0.06669859      -0.08778851       0.27292753 </v>
   <v>       0.22412655       0.08636954       0.06902653 </v>
   <v>      -0.01310249       0.29733414      -0.26492076 </v>
   <v>       0.16530059       0.16661628       0.69762358 </v>
  </varray>
  <energy>
   <i name="e_fr_energy">   -295.41478157 </i>
   <i name="e_wo_entrp">   -295.38200449 </i>
   <i name="e_0_energy">   -295.39839303 </i>
  </energy>
  <time name="totalsc">  288.10  290.63</time>
 </calculation>
 <calculation>
  <scstep>
   <time name="dav">   23.79   23.96</time>
   <time name="total">   24.77   24.95</time>
   <energy>
    <i name="alphaZ">     70.88689164 </i>
    <i name="ewald"> 117817.23619063 </i>
    <i name="hartreedc">-125792.39971633 </i>
    <i name="XCdc">    -40.72288841 </i>
    <i name="pawpsdc">  31734.19479370 </i>
    <i name="pawaedc"> -31044.63245482 </i>
    <i name="eentropy">     -0.03188502 </i>
    <i name="bandstr">  -2130.93064185 </i>
    <i name="atom">   9090.78646416 </i>
    <i name="e_fr_energy">   -295.61324630 </i>
    <i name="e_wo_entrp">   -295.58136128 </i>
    <i name="e_0_energy">   -295.59730379 </i>
   </energy>
  </scstep>
  <scstep>
   <time name="dav">   28.47   28.57</time>
   <time name="total">   29.44   29.54</time>
   <energy>
    <i name="e_fr_energy">   -295.71277654 </i>
    <i name="e_wo_entrp">   -295.68150078 </i>
    <i name="e_0_energy">   -295.69713866 </i>
   </energy>
  </scstep>
  <scstep>
   <time name="dav">   28.27   28.42</time>
   <time name="total">   29.24   29.39</time>
   <energy>
    <i name="e_fr_energy">   -295.71023265 </i>
    <i name="e_wo_entrp">   -295.67879867 </i>
    <i name="e_0_energy">   -295.69451566 </i>
   </energy>
  </scstep>
  <scstep>
   <time name="dav">   30.93   31.31</time>
   <time name="total">   31.90   32.28</time>
   <energy>
    <i name="e_fr_energy">   -295.71277944 </i>
    <i name="e_wo_entrp">   -295.68008542 </i>
    <i name="e_0_energy">   -295.69643243 </i>
   </energy>
  </scstep>
  <scstep>
   <time name="dav">   30.38   30.66</time>
   <time name="total">   31.35   31.65</time>
   <energy>
    <i name="e_fr_energy">   -295.71024257 </i>
    <i name="e_wo_entrp">   -295.67943610 </i>
    <i name="e_0_energy">   -295.69483933 </i>
   </energy>
  </scstep>
  <scstep>
   <time name="dav">   29.52   30.26</time>
   <time name="total">   30.49   31.24</time>
   <energy>
    <i name="e_fr_energy">   -295.70756470 </i>
    <i name="e_wo_entrp">   -295.67604578 </i>
    <i name="e_0_energy">   -295.69180524 </i>
   </energy>
  </scstep>
  <scstep>
   <time name="dav">   28.51   28.65</time>
   <time name="total">   29.49   29.63</time>
   <energy>
    <i name="e_fr_energy">   -295.70680771 </i>
    <i name="e_wo_entrp">   -295.67515912 </i>
    <i name="e_0_energy">   -295.69098342 </i>
   </energy>
  </scstep>
  <scstep>
   <time name="dav">   28.73   28.89</time>
   <time name="total">   29.70   29.87</time>
   <energy>
    <i name="e_fr_energy">   -295.70678000 </i>
    <i name="e_wo_entrp">   -295.67529174 </i>
    <i name="e_0_energy">   -295.69103587 </i>
   </energy>
  </scstep>
  <scstep>
   <time name="dav">   23.87   24.00</time>
   <time name="total">   23.99   24.12</time>
   <energy>
    <i name="alphaZ">     70.88689164 </i>
    <i name="ewald"> 117817.23619063 </i>
    <i name="hartreedc">-125792.00427498 </i>
    <i name="XCdc">    -40.65886700 </i>
    <i name="pawpsdc">  31777.69091542 </i>
    <i name="pawaedc"> -31088.14202793 </i>
    <i name="eentropy">     -0.03150803 </i>
    <i name="bandstr">  -2131.47051465 </i>
    <i name="atom">   9090.78646416 </i>
    <i name="e_fr_energy">   -295.70673074 </i>
    <i name="e_wo_entrp">   -295.67522271 </i>
    <i name="e_0_energy">   -295.69097673 </i>
   </energy>
  </scstep>
  <structure>
   <crystal>
    <varray name="basis" >
     <v>       8.15364985       0.00000000       0.00000000 </v>
     <v>      -4.07682492      11.76877984       3.32871361 </v>
     <v>       0.00000000       0.00000000      39.94456335 </v>
    </varray>
    <i name="volume">   3833.02078075 </i>
    <varray name="rec_basis" >
     <v>       0.12264446       0.04248529      -0.00000000 </v>
     <v>       0.00000000       0.08497058       0.00000000 </v>
     <v>       0.00000000      -0.00708088       0.02503470 </v>
    </varray>
   </crystal>
   <varray name="positions" >
    <v>       0.36720143       0.73440286       0.51693405 </v>
    <v>       0.16720143       0.33440286       0.46693405 </v>
    <v>       0.59292180       0.13802975       0.56380189 </v>
    <v>       0.96720143       0.93440286       0.41693405 </v>
    <v>       0.76079711       0.53802470       0.61099348 </v>
    <v>       0.96720143       0.43440286       0.54193405 </v>
    <v>       0.76720143       0.03440286       0.49193405 </v>
    <v>       0.14936228       0.84755182       0.58768959 </v>
    <v>       0.56720143       0.63440286       0.44193405 </v>
    <v>       0.36720143       0.23440286       0.39193405 </v>
    <v>       0.46720143       0.43440286       0.54193405 </v>
    <v>       0.26720143       0.03440286       0.49193405 </v>
    <v>       0.68761115       0.83690908       0.58709234 </v>
    <v>       0.06720143       0.63440286       0.44193405 </v>
    <v>       0.86720143       0.23440286       0.39193405 </v>
    <v>       0.26585165       0.53088426       0.61491245 </v>
    <v>       0.05988211       0.12837426       0.56962612 </v>
    <v>       0.46720143       0.93440286       0.41693405 </v>
    <v>       0.86720143       0.73440286       0.51693405 </v>
    <v>       0.66720143       0.33440286       0.46693405 </v>
    <v>       0.68012746       0.57793984       0.49737617 </v>
    <v>       0.48012746       0.17793984       0.44737617 </v>
    <v>       0.88012746       0.97793984       0.54737617 </v>
    <v>       0.28012746       0.77793984       0.39737617 </v>
    <v>       0.07757503       0.37656683       0.59700540 </v>
    <v>       0.12366445       0.74732889       0.48326042 </v>
    <v>       0.92366445       0.34732889       0.43326042 </v>
    <v>       0.32366445       0.14732889       0.53326042 </v>
    <v>       0.72366445       0.94732889       0.38326042 </v>
    <v>       0.51961785       0.54807986       0.58413643 </v>
    <v>       0.99781238       0.27793984       0.52237617 </v>
    <v>       0.79781238       0.87793984       0.47237617 </v>
    <v>       0.19670528       0.67492991       0.57426110 </v>
    <v>       0.59781238       0.47793984       0.42237617 </v>
    <v>       0.39781238       0.07793984       0.37237617 </v>
    <v>       0.26720143       0.53440286       0.46472343 </v>
    <v>       0.06720143       0.13440286       0.41472343 </v>
    <v>       0.46720143       0.93440286       0.51472343 </v>
    <v>       0.87047202       0.73440247       0.61993300 </v>
    <v>       0.66782533       0.33819889       0.56691473 </v>
    <v>       0.85427540       0.49086587       0.48649193 </v>
[...]
       <r>   -15.3408     9.1974     8.8516 </r>
       <r>   -15.2748    11.9011     9.6378 </r>
       <r>   -15.2087    15.5738    10.6666 </r>
       <r>   -15.1426     9.6972    11.3071 </r>
       <r>   -15.0766     6.6621    11.7472 </r>
       <r>   -15.0105    14.0668    12.6765 </r>
       <r>   -14.9445    11.1368    13.4121 </r>
       <r>   -14.8784    12.0569    14.2086 </r>
       <r>   -14.8124    12.8124    15.0550 </r>
       <r>   -14.7463    17.7769    16.2293 </r>
       <r>   -14.6802    11.4478    16.9855 </r>
       <r>   -14.6142    16.4521    18.0723 </r>
       <r>   -14.5481    16.1247    19.1375 </r>
       <r>   -14.4821    21.0531    20.5283 </r>
       <r>   -14.4160    17.4892    21.6836 </r>
       <r>   -14.3499    10.8284    22.3989 </r>
       <r>   -14.2839    13.2617    23.2750 </r>
       <r>   -14.2178    13.8797    24.1918 </r>
       <r>   -14.1518    24.0186    25.7785 </r>
       <r>   -14.0857    15.3176    26.7903 </r>
       <r>   -14.0196     7.1322    27.2615 </r>
       <r>   -13.9536    12.8469    28.1101 </r>
       <r>   -13.8875    19.8485    29.4213 </r>
       <r>   -13.8215    11.1243    30.1562 </r>
       <r>   -13.7554    16.9070    31.2730 </r>
       <r>   -13.6894    22.0132    32.7272 </r>
       <r>   -13.6233    13.8355    33.6412 </r>
       <r>   -13.5572    13.9555    34.5630 </r>
       <r>   -13.4912    18.5893    35.7910 </r>
       <r>   -13.4251     3.1298    35.9978 </r>
       <r>   -13.3591     0.0336    36.0000 </r>
       <r>   -13.2930     0.0000    36.0000 </r>
       <r>   -13.2269     0.0048    36.0003 </r>
       <r>   -13.1609     0.4930    36.0329 </r>
       <r>   -13.0948     3.3466    36.2540 </r>
       <r>   -13.0288     6.2694    36.6681 </r>
       <r>   -12.9627    10.6362    37.3707 </r>
       <r>   -12.8966    17.3388    38.5161 </r>
       <r>   -12.8306    18.8497    39.7613 </r>
       <r>   -12.7645    15.6545    40.7954 </r>
       <r>   -12.6985    14.6690    41.7644 </r>
       <r>   -12.6324    14.9986    42.7552 </r>
       <r>   -12.5663    17.9041    43.9380 </r>
       <r>   -12.5003    20.9996    45.3252 </r>
       <r>   -12.4342    19.6031    46.6201 </r>
       <r>   -12.3682    23.2179    48.1539 </r>
       <r>   -12.3021    22.7157    49.6544 </r>
       <r>   -12.2361    17.1475    50.7872 </r>
       <r>   -12.1700    19.3287    52.0640 </r>
       <r>   -12.1039    22.2629    53.5347 </r>
       <r>   -12.0379    24.7721    55.1711 </r>
       <r>   -11.9718    18.8403    56.4157 </r>
       <r>   -11.9058    20.2976    57.7565 </r>
       <r>   -11.8397    18.4498    58.9753 </r>
       <r>   -11.7736    21.4031    60.3891 </r>
       <r>   -11.7076    27.5779    62.2109 </r>
       <r>   -11.6415    22.9693    63.7282 </r>
       <r>   -11.5755    20.9251    65.1105 </r>
       <r>   -11.5094    17.2476    66.2499 </r>
       <r>   -11.4433    18.2165    67.4533 </r>
       <r>   -11.3773    11.2369    68.1956 </r>
       <r>   -11.3112    11.4656    68.9530 </r>
       <r>   -11.2452    12.4932    69.7782 </r>
       <r>   -11.1791     4.5630    70.0797 </r>
       <r>   -11.1131     5.7583    70.4601 </r>
       <r>   -11.0470     9.3954    71.0807 </r>
       <r>   -10.9809    14.9306    72.0670 </r>
       <r>   -10.9149    19.0682    73.3266 </r>
       <r>   -10.8488    13.6412    74.2278 </r>
       <r>   -10.7828    12.8731    75.0781 </r>
       <r>   -10.7167    15.0065    76.0694 </r>
       <r>   -10.6506    16.5593    77.1633 </r>
       <r>   -10.5846    11.4962    77.9228 </r>
       <r>   -10.5185     1.1809    78.0008 </r>
       <r>   -10.4525     1.4377    78.0958 </r>
       <r>   -10.3864     8.8923    78.6832 </r>
       <r>   -10.3203    13.4433    79.5712 </r>
       <r>   -10.2543     6.1218    79.9756 </r>
       <r>   -10.1882     0.6981    80.0217 </r>
       <r>   -10.1222     3.9275    80.2812 </r>
       <r>   -10.0561     8.2043    80.8231 </r>
       <r>    -9.9901     7.6640    81.3294 </r>
       <r>    -9.9240     6.9224    81.7867 </r>
       <r>    -9.8579     4.3080    82.0713 </r>
       <r>    -9.7919     7.2069    82.5474 </r>
       <r>    -9.7258    14.7726    83.5232 </r>
       <r>    -9.6598    19.1568    84.7887 </r>
       <r>    -9.5937    14.7285    85.7617 </r>
       <r>    -9.5276    14.5383    86.7220 </r>
       <r>    -9.4616    16.6866    87.8243 </r>
       <r>    -9.3955    18.5495    89.0497 </r>
       <r>    -9.3295    24.3139    90.6558 </r>
       <r>    -9.2634    18.9572    91.9081 </r>
       <r>    -9.1973    27.1580    93.7022 </r>
       <r>    -9.1313    22.2098    95.1693 </r>
       <r>    -9.0652    22.1508    96.6326 </r>
       <r>    -8.9992    24.6576    98.2614 </r>
       <r>    -8.9331    19.4336    99.5452 </r>
       <r>    -8.8671    16.6672   100.6462 </r>
       <r>    -8.8010    22.5225   102.1340 </r>
       <r>    -8.7349    19.4807   103.4209 </r>
       <r>    -8.6689    18.8482   104.6660 </r>
       <r>    -8.6028    18.5872   105.8938 </r>
       <r>    -8.5368    23.9040   107.4729 </r>
       <r>    -8.4707    18.4747   108.6933 </r>
       <r>    -8.4046    12.8754   109.5438 </r>
       <r>    -8.3386    17.2267   110.6818 </r>
       <r>    -8.2725    22.5508   112.1715 </r>
       <r>    -8.2065    20.6459   113.5353 </r>
       <r>    -8.1404     8.3963   114.0900 </r>
       <r>    -8.0743    13.9028   115.0084 </r>
       <r>    -8.0083    15.5694   116.0369 </r>
       <r>    -7.9422    14.5871   117.0005 </r>
       <r>    -7.8762    20.7789   118.3731 </r>
       <r>    -7.8101     6.3344   118.7916 </r>
       <r>    -7.7440     2.1680   118.9348 </r>
       <r>    -7.6780     6.9744   119.3955 </r>
       <r>    -7.6119     7.2763   119.8762 </r>
       <r>    -7.5459     6.1550   120.2828 </r>
       <r>    -7.4798    11.6708   121.0537 </r>
       <r>    -7.4138    18.8030   122.2958 </r>
       <r>    -7.3477    17.2480   123.4352 </r>
       <r>    -7.2816    17.5247   124.5929 </r>
       <r>    -7.2156    27.7823   126.4282 </r>
       <r>    -7.1495    20.9626   127.8129 </r>
       <r>    -7.0835    25.4854   129.4965 </r>
       <r>    -7.0174    25.4356   131.1767 </r>
       <r>    -6.9513    26.7615   132.9445 </r>
       <r>    -6.8853    28.2344   134.8097 </r>
       <r>    -6.8192    24.0064   136.3955 </r>
       <r>    -6.7532    27.7593   138.2293 </r>
       <r>    -6.6871    27.6045   140.0528 </r>
       <r>    -6.6210    25.2428   141.7203 </r>
       <r>    -6.5550    25.3119   143.3924 </r>
       <r>    -6.4889    28.4437   145.2713 </r>
       <r>    -6.4229    23.9132   146.8510 </r>
       <r>    -6.3568    17.1806   147.9859 </r>
       <r>    -6.2908    21.9374   149.4351 </r>
       <r>    -6.2247    28.5447   151.3207 </r>
       <r>    -6.1586    22.1255   152.7823 </r>
       <r>    -6.0926    24.7857   154.4196 </r>
       <r>    -6.0265    29.6874   156.3808 </r>
       <r>    -5.9605    29.9150   158.3569 </r>
       <r>    -5.8944    29.3436   160.2953 </r>
       <r>    -5.8283    30.7017   162.3234 </r>
       <r>    -5.7623    30.0418   164.3080 </r>
       <r>    -5.6962    27.7810   166.1431 </r>
       <r>    -5.6302    30.5704   168.1626 </r>
       <r>    -5.5641    33.8364   170.3978 </r>
       <r>    -5.4980    30.5281   172.4144 </r>
       <r>    -5.4320    32.6411   174.5707 </r>
       <r>    -5.3659    34.1236   176.8248 </r>
       <r>    -5.2999    36.4945   179.2356 </r>
       <r>    -5.2338    32.7764   181.4008 </r>
       <r>    -5.1678    35.7001   183.7591 </r>
       <r>    -5.1017    33.4178   185.9667 </r>
       <r>    -5.0356    28.4371   187.8452 </r>
       <r>    -4.9696    30.2212   189.8416 </r>
       <r>    -4.9035    31.6784   191.9342 </r>
       <r>    -4.8375    32.7202   194.0957 </r>
       <r>    -4.7714    30.6589   196.1210 </r>
       <r>    -4.7053    30.8793   198.1608 </r>
       <r>    -4.6393    29.2207   200.0911 </r>
       <r>    -4.5732    31.6552   202.1822 </r>
       <r>    -4.5072    32.0388   204.2987 </r>
       <r>    -4.4411    27.8827   206.1406 </r>
       <r>    -4.3750    36.3419   208.5413 </r>
       <r>    -4.3090    33.7613   210.7715 </r>
       <r>    -4.2429    30.3616   212.7771 </r>
       <r>    -4.1769    31.3743   214.8497 </r>
       <r>    -4.1108    31.4515   216.9274 </r>
       <r>    -4.0448    30.3107   218.9296 </r>
       <r>    -3.9787    26.8858   220.7057 </r>
       <r>    -3.9126    27.1274   222.4977 </r>
       <r>    -3.8466    25.8136   224.2029 </r>
       <r>    -3.7805    23.2228   225.7370 </r>
       <r>    -3.7145    26.5205   227.4889 </r>
       <r>    -3.6484    29.6477   229.4474 </r>
       <r>    -3.5823    29.8511   231.4193 </r>
       <r>    -3.5163    28.8150   233.3228 </r>
       <r>    -3.4502    33.3914   235.5286 </r>
       <r>    -3.3842    30.8854   237.5689 </r>
       <r>    -3.3181    29.6799   239.5295 </r>
       <r>    -3.2520    32.8849   241.7018 </r>
       <r>    -3.1860    29.6427   243.6600 </r>
       <r>    -3.1199    27.2136   245.4577 </r>
       <r>    -3.0539    29.6933   247.4192 </r>
       <r>    -2.9878    32.7395   249.5819 </r>
       <r>    -2.9217    32.8240   251.7503 </r>
       <r>    -2.8557    26.9917   253.5333 </r>
       <r>    -2.7896    22.4338   255.0153 </r>
       <r>    -2.7236    24.5720   256.6385 </r>
       <r>    -2.6575    33.6578   258.8619 </r>
       <r>    -2.5915    36.4917   261.2725 </r>
       <r>    -2.5254    34.1431   263.5279 </r>
       <r>    -2.4593    26.8046   265.2986 </r>
       <r>    -2.3933    21.1410   266.6951 </r>
       <r>    -2.3272    27.1847   268.4909 </r>
       <r>    -2.2612    32.2267   270.6198 </r>
       <r>    -2.1951    24.5657   272.2426 </r>
       <r>    -2.1290    22.4858   273.7280 </r>
       <r>    -2.0630    18.8284   274.9717 </r>
       <r>    -1.9969    21.7034   276.4055 </r>
       <r>    -1.9309    20.8825   277.7849 </r>
       <r>    -1.8648    19.9728   279.1043 </r>
       <r>    -1.7987    17.0477   280.2305 </r>
       <r>    -1.7327     8.3394   280.7813 </r>
       <r>    -1.6666    16.4073   281.8652 </r>
       <r>    -1.6006    13.7716   282.7749 </r>
       <r>    -1.5345    12.6540   283.6108 </r>
       <r>    -1.4685    10.9519   284.3343 </r>
       <r>    -1.4024     6.7301   284.7789 </r>
       <r>    -1.3363    12.7001   285.6179 </r>
       <r>    -1.2703    14.3771   286.5676 </r>
       <r>    -1.2042    22.9901   288.0863 </r>
       <r>    -1.1382    17.7318   289.2576 </r>
       <r>    -1.0721    17.4492   290.4103 </r>
       <r>    -1.0060    11.8223   291.1913 </r>
       <r>    -0.9400    15.7260   292.2301 </r>
       <r>    -0.8739    22.1645   293.6943 </r>
       <r>    -0.8079    16.7719   294.8022 </r>
       <r>    -0.7418    16.6520   295.9022 </r>
       <r>    -0.6757    17.5827   297.0637 </r>
       <r>    -0.6097    16.6280   298.1621 </r>
       <r>    -0.5436    19.1019   299.4240 </r>
       <r>    -0.4776    17.9700   300.6111 </r>
       <r>    -0.4115    17.4032   301.7607 </r>
       <r>    -0.3455    16.6414   302.8600 </r>
       <r>    -0.2794    22.3902   304.3391 </r>
       <r>    -0.2133    23.7330   305.9069 </r>
       <r>    -0.1473    22.0966   307.3665 </r>
       <r>    -0.0812    30.9851   309.4134 </r>
       <r>    -0.0152    24.7041   311.0453 </r>
       <r>     0.0509    27.6951   312.8748 </r>
       <r>     0.1170    31.9845   314.9877 </r>
       <r>     0.1830    28.9087   316.8974 </r>
       <r>     0.2491    30.0897   318.8851 </r>
       <r>     0.3151    35.9059   321.2570 </r>
       <r>     0.3812    34.7897   323.5551 </r>
       <r>     0.4473    27.8332   325.3938 </r>
       <r>     0.5133    31.3782   327.4666 </r>
       <r>     0.5794    31.7582   329.5645 </r>
       <r>     0.6454    31.7556   331.6622 </r>
       <r>     0.7115    31.3038   333.7301 </r>
       <r>     0.7775    30.2237   335.7267 </r>
       <r>     0.8436    33.4364   337.9354 </r>
       <r>     0.9097    31.8949   340.0424 </r>
       <r>     0.9757    28.2741   341.9101 </r>
       <r>     1.0418    30.7340   343.9404 </r>
       <r>     1.1078    26.3524   345.6812 </r>
       <r>     1.1739    31.9897   347.7944 </r>
       <r>     1.2400    30.3922   349.8021 </r>
       <r>     1.3060    19.6570   351.1006 </r>
       <r>     1.3721     9.4240   351.7231 </r>
       <r>     1.4381     3.7040   351.9678 </r>
       <r>     1.5042     0.4826   351.9997 </r>
       <r>     1.5703     0.0045   352.0000 </r>
       <r>     1.6363     0.0000   352.0000 </r>
       <r>     1.7024     0.0000   352.0000 </r>
       <r>     1.7684     0.0000   352.0000 </r>
       <r>     1.8345     0.0000   352.0000 </r>
       <r>     1.9006     0.0000   352.0000 </r>
       <r>     1.9666     0.0000   352.0000 </r>
       <r>     2.0327     0.0000   352.0000 </r>
       <r>     2.0987     0.0000   352.0000 </r>
       <r>     2.1648     0.0000   352.0000 </r>
       <r>     2.2308     0.0000   352.0000 </r>
       <r>     2.2969     0.0000   352.0000 </r>
      </set>
     </set>
    </array>
   </total>
  </dos>
 </calculation>
 <structure name="finalpos" >
  <crystal>
   <varray name="basis" >
    <v>       8.15364985       0.00000000       0.00000000 </v>
    <v>      -4.07682492      11.76877984       3.32871361 </v>
    <v>       0.00000000       0.00000000      39.94456335 </v>
   </varray>
   <i name="volume">   3833.02078075 </i>
   <varray name="rec_basis" >
    <v>       0.12264446       0.04248529      -0.00000000 </v>
    <v>       0.00000000       0.08497058       0.00000000 </v>
    <v>       0.00000000      -0.00708088       0.02503470 </v>
   </varray>
  </crystal>
  <varray name="positions" >
   <v>       0.36720143       0.73440286       0.51693405 </v>
   <v>       0.16720143       0.33440286       0.46693405 </v>
   <v>       0.59071481       0.14170434       0.56414186 </v>
   <v>       0.96720143       0.93440286       0.41693405 </v>
   <v>       0.75863262       0.55620738       0.61777120 </v>
   <v>       0.96720143       0.43440286       0.54193405 </v>
   <v>       0.76720143       0.03440286       0.49193405 </v>
   <v>       0.17245176       0.82941345       0.58755617 </v>
   <v>       0.56720143       0.63440286       0.44193405 </v>
   <v>       0.36720143       0.23440286       0.39193405 </v>
   <v>       0.46720143       0.43440286       0.54193405 </v>
   <v>       0.26720143       0.03440286       0.49193405 </v>
   <v>       0.67294266       0.83282165       0.58472880 </v>
   <v>       0.06720143       0.63440286       0.44193405 </v>
   <v>       0.86720143       0.23440286       0.39193405 </v>
   <v>       0.24951431       0.52672257       0.61838181 </v>
   <v>       0.05308838       0.14986058       0.56724416 </v>
   <v>       0.46720143       0.93440286       0.41693405 </v>
   <v>       0.86720143       0.73440286       0.51693405 </v>
   <v>       0.66720143       0.33440286       0.46693405 </v>
   <v>       0.68012746       0.57793984       0.49737617 </v>
   <v>       0.48012746       0.17793984       0.44737617 </v>
   <v>       0.88012746       0.97793984       0.54737617 </v>
   <v>       0.28012746       0.77793984       0.39737617 </v>
   <v>       0.07658123       0.37745150       0.59523481 </v>
   <v>       0.12366445       0.74732889       0.48326042 </v>
   <v>       0.92366445       0.34732889       0.43326042 </v>
   <v>       0.32366445       0.14732889       0.53326042 </v>
   <v>       0.72366445       0.94732889       0.38326042 </v>
   <v>       0.51182422       0.54382203       0.58579564 </v>
   <v>       0.99781238       0.27793984       0.52237617 </v>
   <v>       0.79781238       0.87793984       0.47237617 </v>
   <v>       0.19033422       0.66921417       0.57340675 </v>
   <v>       0.59781238       0.47793984       0.42237617 </v>
   <v>       0.39781238       0.07793984       0.37237617 </v>
   <v>       0.26720143       0.53440286       0.46472343 </v>
   <v>       0.06720143       0.13440286       0.41472343 </v>
   <v>       0.46720143       0.93440286       0.51472343 </v>
   <v>       0.78139107       0.73001440       0.63063389 </v>
   <v>       0.67707675       0.32909828       0.56928799 </v>
   <v>       0.85427540       0.49086587       0.48649193 </v>
   <v>       0.65427540       0.09086587       0.43649193 </v>
   <v>       0.05427540       0.89086587       0.53649193 </v>
   <v>       0.45427540       0.69086587       0.38649193 </v>
   <v>       0.24966613       0.28088454       0.59187788 </v>
   <v>       0.41073841       0.32147683       0.50060768 </v>
   <v>       0.21073841       0.92147683       0.45060768 </v>
   <v>       0.60051318       0.71527106       0.54981457 </v>
   <v>       0.01073841       0.52147683       0.40060768 </v>
   <v>       0.79207391       0.11024721       0.60554985 </v>
   <v>       0.53659048       0.79086587       0.46149193 </v>
   <v>       0.33659048       0.39086587       0.41149193 </v>
   <v>       0.73659048       0.19086587       0.51149193 </v>
   <v>       0.04795303       0.83143209       0.63587587 </v>
   <v>       0.92097660       0.59143014       0.56342100 </v>
   <v>       0.26720143       0.53440286       0.51914466 </v>
   <v>       0.06720143       0.13440286       0.46914466 </v>
   <v>       0.46769191       0.93302772       0.57061592 </v>
   <v>       0.86720143       0.73440286       0.41914466 </v>
   <v>       0.79944600       0.26860362       0.61998802 </v>
  </varray>
  <varray name="selective"  type="logical" >
   <v type="logical" >  F  F  F </v>
   <v type="logical" >  F  F  F </v>
   <v type="logical" >  T  T  T </v>
   <v type="logical" >  F  F  F </v>
   <v type="logical" >  T  T  T </v>
   <v type="logical" >  F  F  F </v>
   <v type="logical" >  F  F  F </v>
   <v type="logical" >  T  T  T </v>
   <v type="logical" >  F  F  F </v>
   <v type="logical" >  F  F  F </v>
   <v type="logical" >  F  F  F </v>
   <v type="logical" >  F  F  F </v>
   <v type="logical" >  T  T  T </v>
   <v type="logical" >  F  F  F </v>
   <v type="logical" >  F  F  F </v>
   <v type="logical" >  T  T  T </v>
   <v type="logical" >  T  T  T </v>
   <v type="logical" >  F  F  F </v>
   <v type="logical" >  F  F  F </v>
   <v type="logical" >  F  F  F </v>
   <v type="logical" >  F  F  F </v>
   <v type="logical" >  F  F  F </v>
   <v type="logical" >  F  F  F </v>
   <v type="logical" >  F  F  F </v>
   <v type="logical" >  T  T  T </v>
   <v type="logical" >  F  F  F </v>
   <v type="logical" >  F  F  F </v>
   <v type="logical" >  F  F  F </v>
   <v type="logical" >  F  F  F </v>
   <v type="logical" >  T  T  T </v>
   <v type="logical" >  F  F  F </v>
   <v type="logical" >  F  F  F </v>
   <v type="logical" >  T  T  T </v>
   <v type="logical" >  F  F  F </v>
   <v type="logical" >  F  F  F </v>
   <v type="logical" >  F  F  F </v>
   <v type="logical" >  F  F  F </v>
   <v type="logical" >  F  F  F </v>
   <v type="logical" >  T  T  T </v>
   <v type="logical" >  T  T  T </v>
   <v type="logical" >  F  F  F </v>
   <v type="logical" >  F  F  F </v>
   <v type="logical" >  F  F  F </v>
   <v type="logical" >  F  F  F </v>
   <v type="logical" >  T  T  T </v>
   <v type="logical" >  F  F  F </v>
   <v type="logical" >  F  F  F </v>
   <v type="logical" >  T  T  T </v>
   <v type="logical" >  F  F  F </v>
   <v type="logical" >  T  T  T </v>
   <v type="logical" >  F  F  F </v>
   <v type="logical" >  F  F  F </v>
   <v type="logical" >  F  F  F </v>
   <v type="logical" >  T  T  T </v>
   <v type="logical" >  T  T  T </v>
   <v type="logical" >  F  F  F </v>
   <v type="logical" >  F  F  F </v>
   <v type="logical" >  T  T  T </v>
   <v type="logical" >  F  F  F </v>
   <v type="logical" >  T  T  T </v>
  </varray>
  <nose>
   <v>      -3.00000000       0.00000000       0.00010000       0.00010000 </v>
  </nose>
 </structure>
</modeling>
