unknown system                          
            1
     8.153650    0.000000   -0.000000
    -4.076825   11.768780    3.328714
     0.000000    0.000000   39.944563
   Si   P 
    20    40
Direct configuration=     1
   0.36720143  0.73440286  0.51693405
   0.16720143  0.33440286  0.46693405
   0.56720143  0.13440286  0.56693405
   0.96720143  0.93440286  0.41693405
   0.76720143  0.53440286  0.61693405
   0.96720143  0.43440286  0.54193405
   0.76720143  0.03440286  0.49193405
   0.16720143  0.83440286  0.59193405
   0.56720143  0.63440286  0.44193405
   0.36720143  0.23440286  0.39193405
   0.46720143  0.43440286  0.54193405
   0.26720143  0.03440286  0.49193405
   0.66720143  0.83440286  0.59193405
   0.06720143  0.63440286  0.44193405
   0.86720143  0.23440286  0.39193405
   0.26720143  0.53440286  0.61693405
   0.06720143  0.13440286  0.56693405
   0.46720143  0.93440286  0.41693405
   0.86720143  0.73440286  0.51693405
   0.66720143  0.33440286  0.46693405
   0.68012746  0.57793984  0.49737617
   0.48012746  0.17793984  0.44737617
   0.88012746  0.97793984  0.54737617
   0.28012746  0.77793984  0.39737617
   0.08012746  0.37793984  0.59737617
   0.12366445  0.74732889  0.48326042
   0.92366445  0.34732889  0.43326042
   0.32366445  0.14732889  0.53326042
   0.72366445  0.94732889  0.38326042
   0.52366445  0.54732889  0.58326042
   0.99781238  0.27793984  0.52237617
   0.79781238  0.87793984  0.47237617
   0.19781238  0.67793984  0.57237617
   0.59781238  0.47793984  0.42237617
   0.39781238  0.07793984  0.37237617
   0.26720143  0.53440286  0.46472343
   0.06720143  0.13440286  0.41472343
   0.46720143  0.93440286  0.51472343
   0.86720143  0.73440286  0.61472343
   0.66720143  0.33440286  0.56472343
   0.85427540  0.49086587  0.48649193
   0.65427540  0.09086587  0.43649193
   0.05427540  0.89086587  0.53649193
   0.45427540  0.69086587  0.38649193
   0.25427540  0.29086587  0.58649193
   0.41073841  0.32147683  0.50060768
   0.21073841  0.92147683  0.45060768
   0.61073841  0.72147683  0.55060768
   0.01073841  0.52147683  0.40060768
   0.81073841  0.12147683  0.60060768
   0.53659048  0.79086587  0.46149193
   0.33659048  0.39086587  0.41149193
   0.73659048  0.19086587  0.51149193
   0.13659048  0.99086587  0.61149193
   0.93659048  0.59086587  0.56149193
   0.26720143  0.53440286  0.51914466
   0.06720143  0.13440286  0.46914466
   0.46720143  0.93440286  0.56914466
   0.86720143  0.73440286  0.41914466
   0.66720143  0.33440286  0.61914466
Direct configuration=     2
   0.36720143  0.73440286  0.51693405
   0.16720143  0.33440286  0.46693405
   0.57464485  0.13542023  0.56591325
   0.96720143  0.93440286  0.41693405
   0.76558994  0.53591988  0.61474116
   0.96720143  0.43440286  0.54193405
   0.76720143  0.03440286  0.49193405
   0.16208271  0.83882234  0.59039942
   0.56720143  0.63440286  0.44193405
   0.36720143  0.23440286  0.39193405
   0.46720143  0.43440286  0.54193405
   0.26720143  0.03440286  0.49193405
   0.67268069  0.83525813  0.59029918
   0.06720143  0.63440286  0.44193405
   0.86720143  0.23440286  0.39193405
   0.26744337  0.53403657  0.61616791
   0.06518505  0.13260954  0.56760875
   0.46720143  0.93440286  0.41693405
   0.86720143  0.73440286  0.51693405
   0.66720143  0.33440286  0.46693405
   0.68012746  0.57793984  0.49737617
   0.48012746  0.17793984  0.44737617
   0.88012746  0.97793984  0.54737617
   0.28012746  0.77793984  0.39737617
   0.07990544  0.37726661  0.59722726
   0.12366445  0.74732889  0.48326042
   0.92366445  0.34732889  0.43326042
   0.32366445  0.14732889  0.53326042
   0.72366445  0.94732889  0.38326042
   0.52320626  0.54661836  0.58400523
   0.99781238  0.27793984  0.52237617
   0.79781238  0.87793984  0.47237617
   0.19850680  0.67645484  0.57300476
   0.59781238  0.47793984  0.42237617
   0.39781238  0.07793984  0.37237617
   0.26720143  0.53440286  0.46472343
   0.06720143  0.13440286  0.41472343
   0.46720143  0.93440286  0.51472343
   0.86895026  0.73434588  0.61601671
   0.66727284  0.33586126  0.56550451
   0.85427540  0.49086587  0.48649193
   0.65427540  0.09086587  0.43649193
   0.05427540  0.89086587  0.53649193
   0.45427540  0.69086587  0.38649193
   0.25371650  0.29123992  0.58702732
   0.41073841  0.32147683  0.50060768
   0.21073841  0.92147683  0.45060768
   0.61038760  0.72328065  0.55088657
   0.01073841  0.52147683  0.40060768
   0.80956396  0.12123491  0.60102682
   0.53659048  0.79086587  0.46149193
   0.33659048  0.39086587  0.41149193
   0.73659048  0.19086587  0.51149193
   0.13559040  0.98925639  0.61177266
   0.93457207  0.59089521  0.56192619
   0.26720143  0.53440286  0.51914466
   0.06720143  0.13440286  0.46914466
   0.46511367  0.93393812  0.56962980
   0.86720143  0.73440286  0.41914466
   0.66768755  0.33280272  0.61957825
Direct configuration=     3
   0.36720143  0.73440286  0.51693405
   0.16720143  0.33440286  0.46693405
   0.58524082  0.13686849  0.56446011
   0.96720143  0.93440286  0.41693405
   0.76329593  0.53807941  0.61161949
   0.96720143  0.43440286  0.54193405
   0.76720143  0.03440286  0.49193405
   0.15479603  0.84511363  0.58821481
   0.56720143  0.63440286  0.44193405
   0.36720143  0.23440286  0.39193405
   0.46720143  0.43440286  0.54193405
   0.26720143  0.03440286  0.49193405
   0.68048062  0.83647564  0.58797189
   0.06720143  0.63440286  0.44193405
   0.86720143  0.23440286  0.39193405
   0.26778778  0.53351515  0.61507729
   0.06231466  0.13005670  0.56856922
   0.46720143  0.93440286  0.41693405
   0.86720143  0.73440286  0.51693405
   0.66720143  0.33440286  0.46693405
   0.68012746  0.57793984  0.49737617
   0.48012746  0.17793984  0.44737617
   0.88012746  0.97793984  0.54737617
   0.28012746  0.77793984  0.39737617
   0.07958938  0.37630825  0.59701528
   0.12366445  0.74732889  0.48326042
   0.92366445  0.34732889  0.43326042
   0.32366445  0.14732889  0.53326042
   0.72366445  0.94732889  0.38326042
   0.52255402  0.54560689  0.58506550
   0.99781238  0.27793984  0.52237617
   0.79781238  0.87793984  0.47237617
   0.19949534  0.67434090  0.57389957
   0.59781238  0.47793984  0.42237617
   0.39781238  0.07793984  0.37237617
   0.26720143  0.53440286  0.46472343
   0.06720143  0.13440286  0.41472343
   0.46720143  0.93440286  0.51472343
   0.87143978  0.73426477  0.61785773
   0.66737449  0.33793734  0.56661642
   0.85427540  0.49086587  0.48649193
   0.65427540  0.09086587  0.43649193
   0.05427540  0.89086587  0.53649193
   0.45427540  0.69086587  0.38649193
   0.25292087  0.29177241  0.58778946
   0.41073841  0.32147683  0.50060768
   0.21073841  0.92147683  0.45060768
   0.60988822  0.72584846  0.55128357
   0.01073841  0.52147683  0.40060768
   0.80789208  0.12089053  0.60162347
   0.53659048  0.79086587  0.46149193
   0.33659048  0.39086587  0.41149193
   0.73659048  0.19086587  0.51149193
   0.13416675  0.98696523  0.61217230
   0.93169880  0.59093697  0.56254437
   0.26720143  0.53440286  0.51914466
   0.06720143  0.13440286  0.46914466
   0.46214166  0.93327655  0.57032040
   0.86720143  0.73440286  0.41914466
   0.66837957  0.33052487  0.62019548
Direct configuration=     4
   0.36720143  0.73440286  0.51693405
   0.16720143  0.33440286  0.46693405
   0.59292180  0.13802975  0.56380189
   0.96720143  0.93440286  0.41693405
   0.76079711  0.53802470  0.61099348
   0.96720143  0.43440286  0.54193405
   0.76720143  0.03440286  0.49193405
   0.14936228  0.84755182  0.58768959
   0.56720143  0.63440286  0.44193405
   0.36720143  0.23440286  0.39193405
   0.46720143  0.43440286  0.54193405
   0.26720143  0.03440286  0.49193405
   0.68761115  0.83690908  0.58709234
   0.06720143  0.63440286  0.44193405
   0.86720143  0.23440286  0.39193405
   0.26585165  0.53088426  0.61491245
   0.05988211  0.12837426  0.56962612
   0.46720143  0.93440286  0.41693405
   0.86720143  0.73440286  0.51693405
   0.66720143  0.33440286  0.46693405
   0.68012746  0.57793984  0.49737617
   0.48012746  0.17793984  0.44737617
   0.88012746  0.97793984  0.54737617
   0.28012746  0.77793984  0.39737617
   0.07757503  0.37656683  0.59700540
   0.12366445  0.74732889  0.48326042
   0.92366445  0.34732889  0.43326042
   0.32366445  0.14732889  0.53326042
   0.72366445  0.94732889  0.38326042
   0.51961785  0.54807986  0.58413643
   0.99781238  0.27793984  0.52237617
   0.79781238  0.87793984  0.47237617
   0.19670528  0.67492991  0.57426110
   0.59781238  0.47793984  0.42237617
   0.39781238  0.07793984  0.37237617
   0.26720143  0.53440286  0.46472343
   0.06720143  0.13440286  0.41472343
   0.46720143  0.93440286  0.51472343
   0.87047202  0.73440247  0.61993300
   0.66782533  0.33819889  0.56691473
   0.85427540  0.49086587  0.48649193
   0.65427540  0.09086587  0.43649193
   0.05427540  0.89086587  0.53649193
   0.45427540  0.69086587  0.38649193
   0.25374826  0.29065999  0.58836516
   0.41073841  0.32147683  0.50060768
   0.21073841  0.92147683  0.45060768
   0.60758087  0.72260625  0.55096915
   0.01073841  0.52147683  0.40060768
   0.80697783  0.12076890  0.60222518
   0.53659048  0.79086587  0.46149193
   0.33659048  0.39086587  0.41149193
   0.73659048  0.19086587  0.51149193
   0.13175394  0.98495862  0.61280798
   0.93736282  0.59284722  0.56109826
   0.26720143  0.53440286  0.51914466
   0.06720143  0.13440286  0.46914466
   0.46284976  0.93345917  0.57067378
   0.86720143  0.73440286  0.41914466
   0.67035954  0.33046500  0.62145878
Direct configuration=     5
   0.36720143  0.73440286  0.51693405
   0.16720143  0.33440286  0.46693405
   0.59606437  0.13850486  0.56353259
   0.96720143  0.93440286  0.41693405
   0.75977475  0.53800231  0.61073736
   0.96720143  0.43440286  0.54193405
   0.76720143  0.03440286  0.49193405
   0.14713913  0.84854937  0.58747471
   0.56720143  0.63440286  0.44193405
   0.36720143  0.23440286  0.39193405
   0.46720143  0.43440286  0.54193405
   0.26720143  0.03440286  0.49193405
   0.69052851  0.83708641  0.58673249
   0.06720143  0.63440286  0.44193405
   0.86720143  0.23440286  0.39193405
   0.26505951  0.52980788  0.61484501
   0.05888687  0.12768591  0.57005853
   0.46720143  0.93440286  0.41693405
   0.86720143  0.73440286  0.51693405
   0.66720143  0.33440286  0.46693405
   0.68012746  0.57793984  0.49737617
   0.48012746  0.17793984  0.44737617
   0.88012746  0.97793984  0.54737617
   0.28012746  0.77793984  0.39737617
   0.07675089  0.37667263  0.59700135
   0.12366445  0.74732889  0.48326042
   0.92366445  0.34732889  0.43326042
   0.32366445  0.14732889  0.53326042
   0.72366445  0.94732889  0.38326042
   0.51841656  0.54909164  0.58375632
   0.99781238  0.27793984  0.52237617
   0.79781238  0.87793984  0.47237617
   0.19556377  0.67517090  0.57440902
   0.59781238  0.47793984  0.42237617
   0.39781238  0.07793984  0.37237617
   0.26720143  0.53440286  0.46472343
   0.06720143  0.13440286  0.41472343
   0.46720143  0.93440286  0.51472343
   0.87007607  0.73445881  0.62078207
   0.66800979  0.33830590  0.56703679
   0.85427540  0.49086587  0.48649193
   0.65427540  0.09086587  0.43649193
   0.05427540  0.89086587  0.53649193
   0.45427540  0.69086587  0.38649193
   0.25408678  0.29020486  0.58860070
   0.41073841  0.32147683  0.50060768
   0.21073841  0.92147683  0.45060768
   0.60663686  0.72127975  0.55084051
   0.01073841  0.52147683  0.40060768
   0.80660378  0.12071914  0.60247136
   0.53659048  0.79086587  0.46149193
   0.33659048  0.39086587  0.41149193
   0.73659048  0.19086587  0.51149193
   0.13076677  0.98413764  0.61306806
   0.93968018  0.59362877  0.56050660
   0.26720143  0.53440286  0.51914466
   0.06720143  0.13440286  0.46914466
   0.46313948  0.93353388  0.57081836
   0.86720143  0.73440286  0.41914466
   0.67116961  0.33044051  0.62197563
Direct configuration=     6
   0.36720143  0.73440286  0.51693405
   0.16720143  0.33440286  0.46693405
   0.59735924  0.13828549  0.56429366
   0.96720143  0.93440286  0.41693405
   0.75963378  0.53810751  0.61028220
   0.96720143  0.43440286  0.54193405
   0.76720143  0.03440286  0.49193405
   0.14492200  0.84658988  0.58904248
   0.56720143  0.63440286  0.44193405
   0.36720143  0.23440286  0.39193405
   0.46720143  0.43440286  0.54193405
   0.26720143  0.03440286  0.49193405
   0.69211764  0.83374771  0.58711980
   0.06720143  0.63440286  0.44193405
   0.86720143  0.23440286  0.39193405
   0.26129283  0.52781540  0.61508079
   0.05789095  0.12723833  0.57088959
   0.46720143  0.93440286  0.41693405
   0.86720143  0.73440286  0.51693405
   0.66720143  0.33440286  0.46693405
   0.68012746  0.57793984  0.49737617
   0.48012746  0.17793984  0.44737617
   0.88012746  0.97793984  0.54737617
   0.28012746  0.77793984  0.39737617
   0.07538100  0.37602672  0.59693917
   0.12366445  0.74732889  0.48326042
   0.92366445  0.34732889  0.43326042
   0.32366445  0.14732889  0.53326042
   0.72366445  0.94732889  0.38326042
   0.51560943  0.54846034  0.58288915
   0.99781238  0.27793984  0.52237617
   0.79781238  0.87793984  0.47237617
   0.19578367  0.67786332  0.57454571
   0.59781238  0.47793984  0.42237617
   0.39781238  0.07793984  0.37237617
   0.26720143  0.53440286  0.46472343
   0.06720143  0.13440286  0.41472343
   0.46720143  0.93440286  0.51472343
   0.86700074  0.73517360  0.62224011
   0.66842808  0.33730634  0.56781016
   0.85427540  0.49086587  0.48649193
   0.65427540  0.09086587  0.43649193
   0.05427540  0.89086587  0.53649193
   0.45427540  0.69086587  0.38649193
   0.25361671  0.28937977  0.58913036
   0.41073841  0.32147683  0.50060768
   0.21073841  0.92147683  0.45060768
   0.60748905  0.72119978  0.54994194
   0.01073841  0.52147683  0.40060768
   0.80659255  0.12066689  0.60298247
   0.53659048  0.79086587  0.46149193
   0.33659048  0.39086587  0.41149193
   0.73659048  0.19086587  0.51149193
   0.12753839  0.98301906  0.61389126
   0.94019059  0.59341693  0.55979163
   0.26720143  0.53440286  0.51914466
   0.06720143  0.13440286  0.46914466
   0.46624847  0.93363195  0.57088929
   0.86720143  0.73440286  0.41914466
   0.67488394  0.33311577  0.62222329
Direct configuration=     7
   0.36720143  0.73440286  0.51693405
   0.16720143  0.33440286  0.46693405
   0.59845589  0.13809970  0.56493823
   0.96720143  0.93440286  0.41693405
   0.75951438  0.53819661  0.60989671
   0.96720143  0.43440286  0.54193405
   0.76720143  0.03440286  0.49193405
   0.14304428  0.84493035  0.59037025
   0.56720143  0.63440286  0.44193405
   0.36720143  0.23440286  0.39193405
   0.46720143  0.43440286  0.54193405
   0.26720143  0.03440286  0.49193405
   0.69346350  0.83092012  0.58744783
   0.06720143  0.63440286  0.44193405
   0.86720143  0.23440286  0.39193405
   0.25810278  0.52612795  0.61528047
   0.05704749  0.12685927  0.57159342
   0.46720143  0.93440286  0.41693405
   0.86720143  0.73440286  0.51693405
   0.66720143  0.33440286  0.46693405
   0.68012746  0.57793984  0.49737617
   0.48012746  0.17793984  0.44737617
   0.88012746  0.97793984  0.54737617
   0.28012746  0.77793984  0.39737617
   0.07422081  0.37547968  0.59688650
   0.12366445  0.74732889  0.48326042
   0.92366445  0.34732889  0.43326042
   0.32366445  0.14732889  0.53326042
   0.72366445  0.94732889  0.38326042
   0.51323203  0.54792568  0.58215473
   0.99781238  0.27793984  0.52237617
   0.79781238  0.87793984  0.47237617
   0.19596990  0.68014357  0.57466148
   0.59781238  0.47793984  0.42237617
   0.39781238  0.07793984  0.37237617
   0.26720143  0.53440286  0.46472343
   0.06720143  0.13440286  0.41472343
   0.46720143  0.93440286  0.51472343
   0.86439619  0.73577897  0.62347495
   0.66878233  0.33645979  0.56846514
   0.85427540  0.49086587  0.48649193
   0.65427540  0.09086587  0.43649193
   0.05427540  0.89086587  0.53649193
   0.45427540  0.69086587  0.38649193
   0.25321860  0.28868098  0.58957895
   0.41073841  0.32147683  0.50060768
   0.21073841  0.92147683  0.45060768
   0.60821078  0.72113206  0.54918093
   0.01073841  0.52147683  0.40060768
   0.80658305  0.12062263  0.60341533
   0.53659048  0.79086587  0.46149193
   0.33659048  0.39086587  0.41149193
   0.73659048  0.19086587  0.51149193
   0.12480422  0.98207171  0.61458844
   0.94062286  0.59323752  0.55918612
   0.26720143  0.53440286  0.51914466
   0.06720143  0.13440286  0.46914466
   0.46888153  0.93371500  0.57094937
   0.86720143  0.73440286  0.41914466
   0.67802967  0.33538148  0.62243303
Direct configuration=     8
   0.36720143  0.73440286  0.51693405
   0.16720143  0.33440286  0.46693405
   0.59785252  0.13751697  0.56528773
   0.96720143  0.93440286  0.41693405
   0.75848871  0.53991349  0.60898732
   0.96720143  0.43440286  0.54193405
   0.76720143  0.03440286  0.49193405
   0.14006975  0.84345138  0.59064407
   0.56720143  0.63440286  0.44193405
   0.36720143  0.23440286  0.39193405
   0.46720143  0.43440286  0.54193405
   0.26720143  0.03440286  0.49193405
   0.69336774  0.82888037  0.58719475
   0.06720143  0.63440286  0.44193405
   0.86720143  0.23440286  0.39193405
   0.25680728  0.52679537  0.61516186
   0.05761476  0.12689388  0.57181424
   0.46720143  0.93440286  0.41693405
   0.86720143  0.73440286  0.51693405
   0.66720143  0.33440286  0.46693405
   0.68012746  0.57793984  0.49737617
   0.48012746  0.17793984  0.44737617
   0.88012746  0.97793984  0.54737617
   0.28012746  0.77793984  0.39737617
   0.07198867  0.37393816  0.59671616
   0.12366445  0.74732889  0.48326042
   0.92366445  0.34732889  0.43326042
   0.32366445  0.14732889  0.53326042
   0.72366445  0.94732889  0.38326042
   0.51292703  0.54659250  0.58231512
   0.99781238  0.27793984  0.52237617
   0.79781238  0.87793984  0.47237617
   0.19466530  0.67980878  0.57486830
   0.59781238  0.47793984  0.42237617
   0.39781238  0.07793984  0.37237617
   0.26720143  0.53440286  0.46472343
   0.06720143  0.13440286  0.41472343
   0.46720143  0.93440286  0.51472343
   0.86075899  0.73525455  0.62435358
   0.66835017  0.33597402  0.56878278
   0.85427540  0.49086587  0.48649193
   0.65427540  0.09086587  0.43649193
   0.05427540  0.89086587  0.53649193
   0.45427540  0.69086587  0.38649193
   0.25233125  0.28833856  0.58995029
   0.41073841  0.32147683  0.50060768
   0.21073841  0.92147683  0.45060768
   0.60956051  0.72178479  0.54912051
   0.01073841  0.52147683  0.40060768
   0.80781298  0.12077622  0.60413601
   0.53659048  0.79086587  0.46149193
   0.33659048  0.39086587  0.41149193
   0.73659048  0.19086587  0.51149193
   0.12087779  0.98135106  0.61577218
   0.94075209  0.59418163  0.55977676
   0.26720143  0.53440286  0.51914466
   0.06720143  0.13440286  0.46914466
   0.47062728  0.93244067  0.57121160
   0.86720143  0.73440286  0.41914466
   0.68277786  0.33840587  0.62271100
Direct configuration=     9
   0.36720143  0.73440286  0.51693405
   0.16720143  0.33440286  0.46693405
   0.59755298  0.13722766  0.56546124
   0.96720143  0.93440286  0.41693405
   0.75797951  0.54076585  0.60853585
   0.96720143  0.43440286  0.54193405
   0.76720143  0.03440286  0.49193405
   0.13859303  0.84271713  0.59078001
   0.56720143  0.63440286  0.44193405
   0.36720143  0.23440286  0.39193405
   0.46720143  0.43440286  0.54193405
   0.26720143  0.03440286  0.49193405
   0.69332020  0.82786773  0.58706911
   0.06720143  0.63440286  0.44193405
   0.86720143  0.23440286  0.39193405
   0.25616412  0.52712671  0.61510298
   0.05789639  0.12691107  0.57192387
   0.46720143  0.93440286  0.41693405
   0.86720143  0.73440286  0.51693405
   0.66720143  0.33440286  0.46693405
   0.68012746  0.57793984  0.49737617
   0.48012746  0.17793984  0.44737617
   0.88012746  0.97793984  0.54737617
   0.28012746  0.77793984  0.39737617
   0.07088051  0.37317286  0.59663160
   0.12366445  0.74732889  0.48326042
   0.92366445  0.34732889  0.43326042
   0.32366445  0.14732889  0.53326042
   0.72366445  0.94732889  0.38326042
   0.51277561  0.54593064  0.58239474
   0.99781238  0.27793984  0.52237617
   0.79781238  0.87793984  0.47237617
   0.19401763  0.67964257  0.57497098
   0.59781238  0.47793984  0.42237617
   0.39781238  0.07793984  0.37237617
   0.26720143  0.53440286  0.46472343
   0.06720143  0.13440286  0.41472343
   0.46720143  0.93440286  0.51472343
   0.85895327  0.73499420  0.62478979
   0.66813563  0.33573285  0.56894047
   0.85427540  0.49086587  0.48649193
   0.65427540  0.09086587  0.43649193
   0.05427540  0.89086587  0.53649193
   0.45427540  0.69086587  0.38649193
   0.25189071  0.28816856  0.59013464
   0.41073841  0.32147683  0.50060768
   0.21073841  0.92147683  0.45060768
   0.61023060  0.72210885  0.54909052
   0.01073841  0.52147683  0.40060768
   0.80842358  0.12085247  0.60449380
   0.53659048  0.79086587  0.46149193
   0.33659048  0.39086587  0.41149193
   0.73659048  0.19086587  0.51149193
   0.11892848  0.98099329  0.61635985
   0.94081624  0.59465034  0.56006998
   0.26720143  0.53440286  0.51914466
   0.06720143  0.13440286  0.46914466
   0.47149396  0.93180802  0.57134178
   0.86720143  0.73440286  0.41914466
   0.68513513  0.33990734  0.62284900
Direct configuration=    10
   0.36720143  0.73440286  0.51693405
   0.16720143  0.33440286  0.46693405
   0.59802726  0.13609534  0.56569757
   0.96720143  0.93440286  0.41693405
   0.75636411  0.54313605  0.60858929
   0.96720143  0.43440286  0.54193405
   0.76720143  0.03440286  0.49193405
   0.13432046  0.84245005  0.59111507
   0.56720143  0.63440286  0.44193405
   0.36720143  0.23440286  0.39193405
   0.46720143  0.43440286  0.54193405
   0.26720143  0.03440286  0.49193405
   0.69383166  0.82805994  0.58672129
   0.06720143  0.63440286  0.44193405
   0.86720143  0.23440286  0.39193405
   0.25484402  0.52738031  0.61497017
   0.05923338  0.12674492  0.57223462
   0.46720143  0.93440286  0.41693405
   0.86720143  0.73440286  0.51693405
   0.66720143  0.33440286  0.46693405
   0.68012746  0.57793984  0.49737617
   0.48012746  0.17793984  0.44737617
   0.88012746  0.97793984  0.54737617
   0.28012746  0.77793984  0.39737617
   0.06762509  0.37210505  0.59662196
   0.12366445  0.74732889  0.48326042
   0.92366445  0.34732889  0.43326042
   0.32366445  0.14732889  0.53326042
   0.72366445  0.94732889  0.38326042
   0.51092514  0.54666734  0.58232141
   0.99781238  0.27793984  0.52237617
   0.79781238  0.87793984  0.47237617
   0.19411588  0.67936406  0.57534130
   0.59781238  0.47793984  0.42237617
   0.39781238  0.07793984  0.37237617
   0.26720143  0.53440286  0.46472343
   0.06720143  0.13440286  0.41472343
   0.46720143  0.93440286  0.51472343
   0.85381020  0.73327487  0.62525918
   0.66756230  0.33579118  0.56933459
   0.85427540  0.49086587  0.48649193
   0.65427540  0.09086587  0.43649193
   0.05427540  0.89086587  0.53649193
   0.45427540  0.69086587  0.38649193
   0.25167620  0.28770913  0.59038934
   0.41073841  0.32147683  0.50060768
   0.21073841  0.92147683  0.45060768
   0.60850834  0.71954694  0.54930105
   0.01073841  0.52147683  0.40060768
   0.81043879  0.12164434  0.60512171
   0.53659048  0.79086587  0.46149193
   0.33659048  0.39086587  0.41149193
   0.73659048  0.19086587  0.51149193
   0.11290833  0.97918454  0.61741583
   0.94099981  0.59571864  0.56004825
   0.26720143  0.53440286  0.51914466
   0.06720143  0.13440286  0.46914466
   0.47179029  0.92972848  0.57168445
   0.86720143  0.73440286  0.41914466
   0.69251602  0.34392901  0.62302778
Direct configuration=    11
   0.36720143  0.73440286  0.51693405
   0.16720143  0.33440286  0.46693405
   0.59849254  0.13498450  0.56592941
   0.96720143  0.93440286  0.41693405
   0.75477935  0.54546128  0.60864172
   0.96720143  0.43440286  0.54193405
   0.76720143  0.03440286  0.49193405
   0.13012895  0.84218804  0.59144377
   0.56720143  0.63440286  0.44193405
   0.36720143  0.23440286  0.39193405
   0.46720143  0.43440286  0.54193405
   0.26720143  0.03440286  0.49193405
   0.69433341  0.82824850  0.58638007
   0.06720143  0.63440286  0.44193405
   0.86720143  0.23440286  0.39193405
   0.25354898  0.52762910  0.61483989
   0.06054501  0.12658193  0.57253947
   0.46720143  0.93440286  0.41693405
   0.86720143  0.73440286  0.51693405
   0.66720143  0.33440286  0.46693405
   0.68012746  0.57793984  0.49737617
   0.48012746  0.17793984  0.44737617
   0.88012746  0.97793984  0.54737617
   0.28012746  0.77793984  0.39737617
   0.06443143  0.37105749  0.59661251
   0.12366445  0.74732889  0.48326042
   0.92366445  0.34732889  0.43326042
   0.32366445  0.14732889  0.53326042
   0.72366445  0.94732889  0.38326042
   0.50910977  0.54739006  0.58224947
   0.99781238  0.27793984  0.52237617
   0.79781238  0.87793984  0.47237617
   0.19421227  0.67909085  0.57570460
   0.59781238  0.47793984  0.42237617
   0.39781238  0.07793984  0.37237617
   0.26720143  0.53440286  0.46472343
   0.06720143  0.13440286  0.41472343
   0.46720143  0.93440286  0.51472343
   0.84876471  0.73158816  0.62571966
   0.66699986  0.33584841  0.56972123
   0.85427540  0.49086587  0.48649193
   0.65427540  0.09086587  0.43649193
   0.05427540  0.89086587  0.53649193
   0.45427540  0.69086587  0.38649193
   0.25146576  0.28725842  0.59063920
   0.41073841  0.32147683  0.50060768
   0.21073841  0.92147683  0.45060768
   0.60681876  0.71703363  0.54950759
   0.01073841  0.52147683  0.40060768
   0.81241577  0.12242119  0.60573771
   0.53659048  0.79086587  0.46149193
   0.33659048  0.39086587  0.41149193
   0.73659048  0.19086587  0.51149193
   0.10700240  0.97741011  0.61845177
   0.94117990  0.59676666  0.56002693
   0.26720143  0.53440286  0.51914466
   0.06720143  0.13440286  0.46914466
   0.47208101  0.92768839  0.57202061
   0.86720143  0.73440286  0.41914466
   0.69975689  0.34787439  0.62320316
Direct configuration=    12
   0.36720143  0.73440286  0.51693405
   0.16720143  0.33440286  0.46693405
   0.59975232  0.13387808  0.56614796
   0.96720143  0.93440286  0.41693405
   0.75432831  0.54778251  0.60874957
   0.96720143  0.43440286  0.54193405
   0.76720143  0.03440286  0.49193405
   0.12658862  0.84192658  0.59199201
   0.56720143  0.63440286  0.44193405
   0.36720143  0.23440286  0.39193405
   0.46720143  0.43440286  0.54193405
   0.26720143  0.03440286  0.49193405
   0.69373294  0.82839031  0.58614457
   0.06720143  0.63440286  0.44193405
   0.86720143  0.23440286  0.39193405
   0.25178337  0.52674598  0.61494340
   0.06155691  0.12639251  0.57291301
   0.46720143  0.93440286  0.41693405
   0.86720143  0.73440286  0.51693405
   0.66720143  0.33440286  0.46693405
   0.68012746  0.57793984  0.49737617
   0.48012746  0.17793984  0.44737617
   0.88012746  0.97793984  0.54737617
   0.28012746  0.77793984  0.39737617
   0.06249309  0.37046871  0.59671959
   0.12366445  0.74732889  0.48326042
   0.92366445  0.34732889  0.43326042
   0.32366445  0.14732889  0.53326042
   0.72366445  0.94732889  0.38326042
   0.50624035  0.54624611  0.58247704
   0.99781238  0.27793984  0.52237617
   0.79781238  0.87793984  0.47237617
   0.19398681  0.67972733  0.57582369
   0.59781238  0.47793984  0.42237617
   0.39781238  0.07793984  0.37237617
   0.26720143  0.53440286  0.46472343
   0.06720143  0.13440286  0.41472343
   0.46720143  0.93440286  0.51472343
   0.84486434  0.73009789  0.62576177
   0.66696316  0.33631603  0.57005354
   0.85427540  0.49086587  0.48649193
   0.65427540  0.09086587  0.43649193
   0.05427540  0.89086587  0.53649193
   0.45427540  0.69086587  0.38649193
   0.25117527  0.28727861  0.59075819
   0.41073841  0.32147683  0.50060768
   0.21073841  0.92147683  0.45060768
   0.60606409  0.71729421  0.54932005
   0.01073841  0.52147683  0.40060768
   0.81416610  0.12339354  0.60587260
   0.53659048  0.79086587  0.46149193
   0.33659048  0.39086587  0.41149193
   0.73659048  0.19086587  0.51149193
   0.10209711  0.97602203  0.61886468
   0.94076075  0.59683673  0.55996963
   0.26720143  0.53440286  0.51914466
   0.06720143  0.13440286  0.46914466
   0.47160177  0.92686228  0.57215740
   0.86720143  0.73440286  0.41914466
   0.70617301  0.35050986  0.62328733
Direct configuration=    13
   0.36720143  0.73440286  0.51693405
   0.16720143  0.33440286  0.46693405
   0.60167249  0.13219166  0.56648109
   0.96720143  0.93440286  0.41693405
   0.75364082  0.55132058  0.60891395
   0.96720143  0.43440286  0.54193405
   0.76720143  0.03440286  0.49193405
   0.12119240  0.84152806  0.59282765
   0.56720143  0.63440286  0.44193405
   0.36720143  0.23440286  0.39193405
   0.46720143  0.43440286  0.54193405
   0.26720143  0.03440286  0.49193405
   0.69281768  0.82860645  0.58578563
   0.06720143  0.63440286  0.44193405
   0.86720143  0.23440286  0.39193405
   0.24909220  0.52539992  0.61510117
   0.06309928  0.12610380  0.57348236
   0.46720143  0.93440286  0.41693405
   0.86720143  0.73440286  0.51693405
   0.66720143  0.33440286  0.46693405
   0.68012746  0.57793984  0.49737617
   0.48012746  0.17793984  0.44737617
   0.88012746  0.97793984  0.54737617
   0.28012746  0.77793984  0.39737617
   0.05953866  0.36957128  0.59688282
   0.12366445  0.74732889  0.48326042
   0.92366445  0.34732889  0.43326042
   0.32366445  0.14732889  0.53326042
   0.72366445  0.94732889  0.38326042
   0.50186673  0.54450249  0.58282389
   0.99781238  0.27793984  0.52237617
   0.79781238  0.87793984  0.47237617
   0.19364317  0.68069748  0.57600522
   0.59781238  0.47793984  0.42237617
   0.39781238  0.07793984  0.37237617
   0.26720143  0.53440286  0.46472343
   0.06720143  0.13440286  0.41472343
   0.46720143  0.93440286  0.51472343
   0.83891933  0.72782640  0.62582595
   0.66690722  0.33702879  0.57056005
   0.85427540  0.49086587  0.48649193
   0.65427540  0.09086587  0.43649193
   0.05427540  0.89086587  0.53649193
   0.45427540  0.69086587  0.38649193
   0.25073251  0.28730937  0.59093957
   0.41073841  0.32147683  0.50060768
   0.21073841  0.92147683  0.45060768
   0.60491380  0.71769138  0.54903420
   0.01073841  0.52147683  0.40060768
   0.81683399  0.12487563  0.60607820
   0.53659048  0.79086587  0.46149193
   0.33659048  0.39086587  0.41149193
   0.73659048  0.19086587  0.51149193
   0.09462040  0.97390630  0.61949405